version 3
run binomialCQI-0-20231216-18:47:05-67540
attr configname binomialCQI
attr datetime 20231216-18:47:05
attr datetimef 20231216-184705
attr experiment binomialCQI
attr inifile omnetpp.ini
attr iterationvars "$simulationTime=70s, $nUser=25, $lambda=25"
attr iterationvarsd simulationTime=70s/nUser=25/lambda=25
attr iterationvarsf simulationTime=70s,nUser=25,lambda=25-
attr measurement "$simulationTime=70s, $nUser=25, $lambda=25"
attr network Network
attr processid 67540
attr repetition 0
attr replication #0
attr resultdir results
attr runnumber 0
attr seedset 0
itervar lambda 25
itervar nUser 25
itervar simulationTime 70s
config **.Users[*].CQIdistribution "\"binomial\""
config network Network
config cpu-time-limit 60s
config sim-time-limit 70s
config num-rngs 600
config repeat 10
config seed-set 0
config **.NUM_USER 25
config **.LAMBDA 25
config **.CQIArrayLength 15
config **.CQIValues "\" 3 3 6 11 15 20 25 36 39 50 63 72 80 93 93 \""
config **.frameSize 25
config **.timeSlot 0.1

vector 0 Network.BS simFrameStat:vector ETV
attr "" ""
attr recordingmode vector
attr source simFrame
attr title "Occupied frame slots"
vector 1 Network.Users[0] packetDelayStat:vector ETV
attr "" ""
attr recordingmode vector
attr source packetDelay
attr title "Packet delay"
vector 2 Network.Users[0] packetsReceivedStat:vector ETV
attr "" ""
attr recordingmode vector
attr source packetsReceived
attr title "Packets received per timeslot"
vector 3 Network.Users[0] throughputStat:vector ETV
attr "" ""
attr recordingmode vector
attr source throughput
attr title Throughput
vector 4 Network.Users[1] packetDelayStat:vector ETV
attr "" ""
attr recordingmode vector
attr source packetDelay
attr title "Packet delay"
vector 5 Network.Users[1] packetsReceivedStat:vector ETV
attr "" ""
attr recordingmode vector
attr source packetsReceived
attr title "Packets received per timeslot"
vector 6 Network.Users[1] throughputStat:vector ETV
attr "" ""
attr recordingmode vector
attr source throughput
attr title Throughput
vector 7 Network.Users[2] packetDelayStat:vector ETV
attr "" ""
attr recordingmode vector
attr source packetDelay
attr title "Packet delay"
vector 8 Network.Users[2] packetsReceivedStat:vector ETV
attr "" ""
attr recordingmode vector
attr source packetsReceived
attr title "Packets received per timeslot"
vector 9 Network.Users[2] throughputStat:vector ETV
attr "" ""
attr recordingmode vector
attr source throughput
attr title Throughput
vector 10 Network.Users[3] packetDelayStat:vector ETV
attr "" ""
attr recordingmode vector
attr source packetDelay
attr title "Packet delay"
vector 11 Network.Users[3] packetsReceivedStat:vector ETV
attr "" ""
attr recordingmode vector
attr source packetsReceived
attr title "Packets received per timeslot"
vector 12 Network.Users[3] throughputStat:vector ETV
attr "" ""
attr recordingmode vector
attr source throughput
attr title Throughput
vector 13 Network.Users[4] packetDelayStat:vector ETV
attr "" ""
attr recordingmode vector
attr source packetDelay
attr title "Packet delay"
vector 14 Network.Users[4] packetsReceivedStat:vector ETV
attr "" ""
attr recordingmode vector
attr source packetsReceived
attr title "Packets received per timeslot"
vector 15 Network.Users[4] throughputStat:vector ETV
attr "" ""
attr recordingmode vector
attr source throughput
attr title Throughput
vector 16 Network.Users[5] packetDelayStat:vector ETV
attr "" ""
attr recordingmode vector
attr source packetDelay
attr title "Packet delay"
vector 17 Network.Users[5] packetsReceivedStat:vector ETV
attr "" ""
attr recordingmode vector
attr source packetsReceived
attr title "Packets received per timeslot"
vector 18 Network.Users[5] throughputStat:vector ETV
attr "" ""
attr recordingmode vector
attr source throughput
attr title Throughput
0	152	0.1	23
1	153	0.1	0.018352954036
2	153	0.1	1
3	153	0.1	1
4	154	0.1	0.006022469041
4	154	0.1	0.035330558036
4	154	0.1	0.085276986877
5	154	0.1	3
6	154	0.1	31
7	155	0.1	0.05159561326
7	155	0.1	0.077814373826
8	155	0.1	2
9	155	0.1	19
10	156	0.1	0.007327571175
10	156	0.1	0.040279643329
10	156	0.1	0.047772513396
11	156	0.1	3
12	156	0.1	30
13	157	0.1	0.020266514847
14	157	0.1	1
15	157	0.1	6
16	158	0.1	0.058670887812
17	158	0.1	1
18	158	0.1	14
vector 19 Network.Users[6] packetDelayStat:vector ETV
attr "" ""
attr recordingmode vector
attr source packetDelay
attr title "Packet delay"
vector 20 Network.Users[6] packetsReceivedStat:vector ETV
attr "" ""
attr recordingmode vector
attr source packetsReceived
attr title "Packets received per timeslot"
vector 21 Network.Users[6] throughputStat:vector ETV
attr "" ""
attr recordingmode vector
attr source throughput
attr title Throughput
vector 22 Network.Users[7] packetDelayStat:vector ETV
attr "" ""
attr recordingmode vector
attr source packetDelay
attr title "Packet delay"
vector 23 Network.Users[7] packetsReceivedStat:vector ETV
attr "" ""
attr recordingmode vector
attr source packetsReceived
attr title "Packets received per timeslot"
vector 24 Network.Users[7] throughputStat:vector ETV
attr "" ""
attr recordingmode vector
attr source throughput
attr title Throughput
vector 25 Network.Users[8] packetDelayStat:vector ETV
attr "" ""
attr recordingmode vector
attr source packetDelay
attr title "Packet delay"
vector 26 Network.Users[8] packetsReceivedStat:vector ETV
attr "" ""
attr recordingmode vector
attr source packetsReceived
attr title "Packets received per timeslot"
vector 27 Network.Users[8] throughputStat:vector ETV
attr "" ""
attr recordingmode vector
attr source throughput
attr title Throughput
vector 28 Network.Users[9] packetDelayStat:vector ETV
attr "" ""
attr recordingmode vector
attr source packetDelay
attr title "Packet delay"
vector 29 Network.Users[9] packetsReceivedStat:vector ETV
attr "" ""
attr recordingmode vector
attr source packetsReceived
attr title "Packets received per timeslot"
vector 30 Network.Users[9] throughputStat:vector ETV
attr "" ""
attr recordingmode vector
attr source throughput
attr title Throughput
vector 31 Network.Users[10] packetDelayStat:vector ETV
attr "" ""
attr recordingmode vector
attr source packetDelay
attr title "Packet delay"
vector 32 Network.Users[10] packetsReceivedStat:vector ETV
attr "" ""
attr recordingmode vector
attr source packetsReceived
attr title "Packets received per timeslot"
vector 33 Network.Users[10] throughputStat:vector ETV
attr "" ""
attr recordingmode vector
attr source throughput
attr title Throughput
vector 34 Network.Users[11] packetDelayStat:vector ETV
attr "" ""
attr recordingmode vector
attr source packetDelay
attr title "Packet delay"
vector 35 Network.Users[11] packetsReceivedStat:vector ETV
attr "" ""
attr recordingmode vector
attr source packetsReceived
attr title "Packets received per timeslot"
vector 36 Network.Users[11] throughputStat:vector ETV
attr "" ""
attr recordingmode vector
attr source throughput
attr title Throughput
vector 37 Network.Users[12] packetsReceivedStat:vector ETV
attr "" ""
attr recordingmode vector
attr source packetsReceived
attr title "Packets received per timeslot"
vector 38 Network.Users[12] throughputStat:vector ETV
attr "" ""
attr recordingmode vector
attr source throughput
attr title Throughput
vector 39 Network.Users[13] packetsReceivedStat:vector ETV
attr "" ""
attr recordingmode vector
attr source packetsReceived
attr title "Packets received per timeslot"
vector 40 Network.Users[13] throughputStat:vector ETV
attr "" ""
attr recordingmode vector
attr source throughput
attr title Throughput
vector 41 Network.Users[14] packetsReceivedStat:vector ETV
attr "" ""
attr recordingmode vector
attr source packetsReceived
attr title "Packets received per timeslot"
vector 42 Network.Users[14] throughputStat:vector ETV
attr "" ""
attr recordingmode vector
attr source throughput
attr title Throughput
vector 43 Network.Users[15] packetsReceivedStat:vector ETV
attr "" ""
attr recordingmode vector
attr source packetsReceived
attr title "Packets received per timeslot"
vector 44 Network.Users[15] throughputStat:vector ETV
attr "" ""
attr recordingmode vector
attr source throughput
attr title Throughput
vector 45 Network.Users[16] packetsReceivedStat:vector ETV
attr "" ""
attr recordingmode vector
attr source packetsReceived
attr title "Packets received per timeslot"
vector 46 Network.Users[16] throughputStat:vector ETV
attr "" ""
attr recordingmode vector
attr source throughput
attr title Throughput
vector 47 Network.Users[17] packetsReceivedStat:vector ETV
attr "" ""
attr recordingmode vector
attr source packetsReceived
attr title "Packets received per timeslot"
vector 48 Network.Users[17] throughputStat:vector ETV
attr "" ""
attr recordingmode vector
attr source throughput
attr title Throughput
vector 49 Network.Users[18] packetsReceivedStat:vector ETV
attr "" ""
attr recordingmode vector
attr source packetsReceived
attr title "Packets received per timeslot"
vector 50 Network.Users[18] throughputStat:vector ETV
attr "" ""
attr recordingmode vector
attr source throughput
attr title Throughput
vector 51 Network.Users[19] packetsReceivedStat:vector ETV
attr "" ""
attr recordingmode vector
attr source packetsReceived
attr title "Packets received per timeslot"
vector 52 Network.Users[19] throughputStat:vector ETV
attr "" ""
attr recordingmode vector
attr source throughput
attr title Throughput
vector 53 Network.Users[20] packetsReceivedStat:vector ETV
attr "" ""
attr recordingmode vector
attr source packetsReceived
attr title "Packets received per timeslot"
vector 54 Network.Users[20] throughputStat:vector ETV
attr "" ""
attr recordingmode vector
attr source throughput
attr title Throughput
vector 55 Network.Users[21] packetsReceivedStat:vector ETV
attr "" ""
attr recordingmode vector
attr source packetsReceived
attr title "Packets received per timeslot"
vector 56 Network.Users[21] throughputStat:vector ETV
attr "" ""
attr recordingmode vector
attr source throughput
attr title Throughput
vector 57 Network.Users[22] packetsReceivedStat:vector ETV
attr "" ""
attr recordingmode vector
attr source packetsReceived
attr title "Packets received per timeslot"
vector 58 Network.Users[22] throughputStat:vector ETV
attr "" ""
attr recordingmode vector
attr source throughput
attr title Throughput
vector 59 Network.Users[23] packetsReceivedStat:vector ETV
attr "" ""
attr recordingmode vector
attr source packetsReceived
attr title "Packets received per timeslot"
vector 60 Network.Users[23] throughputStat:vector ETV
attr "" ""
attr recordingmode vector
attr source throughput
attr title Throughput
vector 61 Network.Users[24] packetsReceivedStat:vector ETV
attr "" ""
attr recordingmode vector
attr source packetsReceived
attr title "Packets received per timeslot"
vector 62 Network.Users[24] throughputStat:vector ETV
attr "" ""
attr recordingmode vector
attr source throughput
attr title Throughput
vector 63 Network.Users[12] packetDelayStat:vector ETV
attr "" ""
attr recordingmode vector
attr source packetDelay
attr title "Packet delay"
vector 64 Network.Users[13] packetDelayStat:vector ETV
attr "" ""
attr recordingmode vector
attr source packetDelay
attr title "Packet delay"
vector 65 Network.Users[14] packetDelayStat:vector ETV
attr "" ""
attr recordingmode vector
attr source packetDelay
attr title "Packet delay"
vector 66 Network.Users[15] packetDelayStat:vector ETV
attr "" ""
attr recordingmode vector
attr source packetDelay
attr title "Packet delay"
vector 67 Network.Users[16] packetDelayStat:vector ETV
attr "" ""
attr recordingmode vector
attr source packetDelay
attr title "Packet delay"
vector 68 Network.Users[17] packetDelayStat:vector ETV
attr "" ""
attr recordingmode vector
attr source packetDelay
attr title "Packet delay"
vector 69 Network.Users[18] packetDelayStat:vector ETV
attr "" ""
attr recordingmode vector
attr source packetDelay
attr title "Packet delay"
vector 70 Network.Users[19] packetDelayStat:vector ETV
attr "" ""
attr recordingmode vector
attr source packetDelay
attr title "Packet delay"
vector 71 Network.Users[20] packetDelayStat:vector ETV
attr "" ""
attr recordingmode vector
attr source packetDelay
attr title "Packet delay"
vector 72 Network.Users[21] packetDelayStat:vector ETV
attr "" ""
attr recordingmode vector
attr source packetDelay
attr title "Packet delay"
vector 73 Network.Users[22] packetDelayStat:vector ETV
attr "" ""
attr recordingmode vector
attr source packetDelay
attr title "Packet delay"
vector 74 Network.Users[23] packetDelayStat:vector ETV
attr "" ""
attr recordingmode vector
attr source packetDelay
attr title "Packet delay"
vector 75 Network.Users[24] packetDelayStat:vector ETV
attr "" ""
attr recordingmode vector
attr source packetDelay
attr title "Packet delay"
0	345	0.2	25
0	528	0.3	25
0	693	0.4	16
0	882	0.5	25
0	1043	0.6	24
0	1208	0.7	7
0	1359	0.8	24
0	1544	0.9	25
0	1723	1	25
0	1896	1.1	16
0	2071	1.2	25
0	2240	1.3	24
0	2401	1.4	6
0	2600	1.5	25
0	2773	1.6	25
0	2966	1.7	25
0	3131	1.8	5
0	3302	1.9	25
0	3493	2	23
0	3666	2.1	6
0	3833	2.2	25
0	4040	2.3	25
0	4215	2.4	0
0	4374	2.5	25
0	4517	2.6	2
0	4678	2.7	25
0	4827	2.8	7
0	5020	2.9	25
0	5205	3	14
0	5378	3.1	25
0	5551	3.2	25
0	5734	3.3	24
0	5875	3.4	7
0	6056	3.5	25
0	6255	3.6	10
0	6446	3.7	25
0	6619	3.8	25
0	6788	3.9	25
0	6951	4	25
0	7122	4.1	25
0	7297	4.2	25
0	7470	4.3	25
0	7621	4.4	11
0	7812	4.5	25
0	8001	4.6	25
0	8190	4.7	25
0	8355	4.8	25
0	8550	4.9	25
0	8741	5	25
0	8924	5.1	25
0	9107	5.2	14
0	9264	5.3	25
0	9461	5.4	20
0	9618	5.5	25
0	9785	5.6	24
0	9960	5.7	25
0	10111	5.8	25
0	10258	5.9	25
0	10427	6	25
0	10604	6.1	4
0	10767	6.2	25
0	10926	6.3	10
0	11081	6.4	25
0	11260	6.5	3
0	11429	6.6	25
0	11642	6.7	25
0	11801	6.8	25
0	12000	6.9	25
0	12181	7	25
0	12380	7.1	25
0	12547	7.2	25
0	12748	7.3	25
0	12921	7.4	24
0	13112	7.5	5
0	13317	7.6	25
0	13506	7.7	25
0	13667	7.8	24
0	13858	7.9	19
0	14037	8	25
0	14218	8.1	25
0	14421	8.2	22
0	14596	8.3	25
0	14777	8.4	25
0	14968	8.5	13
0	15159	8.6	25
0	15340	8.7	25
0	15519	8.8	25
0	15666	8.9	14
0	15841	9	25
0	15994	9.1	25
0	16179	9.2	25
0	16340	9.3	15
0	16515	9.4	25
0	16658	9.5	17
0	16843	9.6	3
0	16992	9.7	25
0	17187	9.8	25
0	17374	9.9	25
0	17549	10	25
0	17728	10.1	25
0	17927	10.2	25
0	18102	10.3	9
0	18291	10.4	25
0	18440	10.5	17
0	18601	10.6	0
0	18780	10.7	25
0	18943	10.8	25
0	19138	10.9	24
0	19327	11	12
0	19498	11.1	25
0	19691	11.2	14
0	19864	11.3	25
0	20065	11.4	25
0	20244	11.5	25
0	20419	11.6	11
0	20604	11.7	25
0	20763	11.8	15
0	20948	11.9	25
0	21117	12	17
0	21288	12.1	0
0	21465	12.2	25
0	21674	12.3	25
0	21863	12.4	25
0	22026	12.5	25
0	22179	12.6	25
0	22376	12.7	25
0	22545	12.8	25
0	22720	12.9	25
0	22909	13	25
0	23050	13.1	25
0	23235	13.2	25
0	23412	13.3	25
0	23573	13.4	25
0	23724	13.5	12
0	23935	13.6	22
0	24118	13.7	25
0	24339	13.8	25
0	24502	13.9	14
0	24691	14	25
0	24832	14.1	25
0	25017	14.2	25
0	25190	14.3	25
0	25381	14.4	9
0	25524	14.5	25
0	25683	14.6	10
0	25862	14.7	1
0	26027	14.8	25
0	26174	14.9	25
0	26349	15	25
0	26512	15.1	4
0	26699	15.2	7
0	26868	15.3	25
0	27051	15.4	25
0	27236	15.5	25
0	27393	15.6	25
0	27556	15.7	25
0	27745	15.8	3
0	27916	15.9	25
0	28091	16	25
0	28282	16.1	25
0	28449	16.2	14
0	28602	16.3	25
0	28779	16.4	21
0	28968	16.5	23
0	29159	16.6	25
0	29322	16.7	25
0	29503	16.8	25
0	29682	16.9	25
0	29859	17	15
0	30044	17.1	25
0	30225	17.2	25
0	30400	17.3	16
0	30557	17.4	25
0	30718	17.5	25
0	30879	17.6	25
0	31048	17.7	4
0	31197	17.8	0
0	31366	17.9	25
0	31515	18	25
0	31688	18.1	25
0	31861	18.2	24
0	32020	18.3	9
0	32183	18.4	25
0	32364	18.5	13
0	32539	18.6	24
0	32728	18.7	19
0	32873	18.8	25
0	33048	18.9	25
0	33243	19	25
0	33416	19.1	25
0	33563	19.2	17
0	33752	19.3	25
0	33933	19.4	25
0	34126	19.5	25
0	34295	19.6	24
0	34476	19.7	25
0	34651	19.8	23
0	34842	19.9	25
0	35013	20	25
0	35176	20.1	5
0	35335	20.2	25
0	35482	20.3	25
0	35667	20.4	25
0	35818	20.5	6
0	35991	20.6	25
0	36164	20.7	25
0	36347	20.8	6
0	36516	20.9	25
0	36711	21	15
0	36890	21.1	25
0	37081	21.2	16
0	37284	21.3	24
0	37451	21.4	0
0	37634	21.5	25
0	37795	21.6	25
0	37974	21.7	25
0	38159	21.8	25
0	38308	21.9	24
0	38497	22	25
0	38674	22.1	25
0	38869	22.2	21
0	39044	22.3	25
0	39241	22.4	25
0	39410	22.5	24
0	39595	22.6	25
0	39748	22.7	17
0	39923	22.8	25
0	40122	22.9	9
0	40303	23	25
0	40502	23.1	10
0	40719	23.2	25
0	40892	23.3	25
0	41071	23.4	22
0	41242	23.5	25
0	41425	23.6	1
0	41600	23.7	25
0	41781	23.8	11
0	41962	23.9	25
0	42153	24	25
0	42326	24.1	25
0	42497	24.2	7
0	42692	24.3	25
0	42867	24.4	14
0	43050	24.5	25
0	43233	24.6	25
0	43400	24.7	2
0	43579	24.8	25
0	43732	24.9	25
0	43909	25	25
0	44106	25.1	25
0	44277	25.2	25
0	44438	25.3	25
0	44625	25.4	25
0	44842	25.5	25
0	45053	25.6	23
0	45204	25.7	25
0	45363	25.8	16
0	45550	25.9	19
0	45731	26	25
0	45890	26.1	19
0	46085	26.2	25
0	46258	26.3	25
0	46423	26.4	25
0	46598	26.5	9
0	46781	26.6	25
0	46946	26.7	19
0	47119	26.8	25
0	47272	26.9	25
0	47437	27	25
0	47638	27.1	25
0	47843	27.2	25
0	48026	27.3	10
0	48207	27.4	25
0	48366	27.5	25
0	48529	27.6	25
0	48700	27.7	15
0	48865	27.8	25
0	49040	27.9	25
0	49209	28	22
0	49382	28.1	24
0	49549	28.2	11
0	49734	28.3	25
0	49899	28.4	14
0	50098	28.5	25
0	50299	28.6	25
0	50488	28.7	25
0	50683	28.8	25
0	50866	28.9	25
0	51051	29	25
0	51206	29.1	16
0	51413	29.2	25
0	51586	29.3	25
0	51731	29.4	1
0	51922	29.5	17
0	52103	29.6	25
0	52284	29.7	7
0	52461	29.8	25
0	52618	29.9	9
0	52777	30	25
0	52974	30.1	24
0	53131	30.2	12
0	53316	30.3	25
0	53529	30.4	18
0	53736	30.5	25
0	53871	30.6	5
0	54048	30.7	25
0	54241	30.8	7
0	54414	30.9	25
0	54585	31	25
0	54746	31.1	25
0	54923	31.2	25
0	55112	31.3	25
0	55271	31.4	25
0	55420	31.5	25
0	55591	31.6	25
0	55740	31.7	25
0	55909	31.8	25
0	56088	31.9	25
0	56291	32	25
0	56484	32.1	25
0	56681	32.2	25
0	56870	32.3	25
0	57039	32.4	25
0	57186	32.5	25
0	57365	32.6	11
0	57506	32.7	25
0	57677	32.8	15
0	57846	32.9	25
0	58007	33	25
0	58178	33.1	12
0	58351	33.2	25
0	58548	33.3	17
0	58719	33.4	25
0	58880	33.5	25
0	59055	33.6	25
0	59212	33.7	25
0	59381	33.8	25
0	59538	33.9	25
0	59725	34	25
0	59926	34.1	25
0	60095	34.2	25
0	60266	34.3	24
0	60449	34.4	19
0	60630	34.5	25
0	60801	34.6	25
0	60960	34.7	7
0	61111	34.8	25
0	61300	34.9	25
0	61497	35	2
0	61642	35.1	25
0	61817	35.2	7
0	61970	35.3	25
0	62141	35.4	25
0	62322	35.5	0
0	62491	35.6	25
0	62690	35.7	24
0	62907	35.8	3
0	63064	35.9	25
0	63241	36	5
0	63430	36.1	25
0	63615	36.2	25
0	63772	36.3	25
0	63951	36.4	25
0	64140	36.5	6
0	64317	36.6	25
0	64488	36.7	12
0	64681	36.8	25
0	64858	36.9	0
0	65035	37	25
0	65232	37.1	12
0	65411	37.2	25
0	65586	37.3	25
0	65781	37.4	16
0	65944	37.5	25
0	66127	37.6	3
0	66306	37.7	25
0	66493	37.8	19
0	66660	37.9	23
0	66827	38	25
0	66994	38.1	25
0	67177	38.2	7
0	67368	38.3	25
0	67551	38.4	25
0	67740	38.5	9
0	67889	38.6	25
0	68070	38.7	25
0	68243	38.8	4
0	68432	38.9	0
0	68595	39	25
0	68764	39.1	25
0	68951	39.2	25
0	69114	39.3	25
0	69295	39.4	25
0	69480	39.5	9
0	69647	39.6	0
0	69822	39.7	25
0	70005	39.8	8
0	70180	39.9	25
0	70371	40	8
0	70548	40.1	25
0	70691	40.2	16
0	70874	40.3	25
0	71045	40.4	25
0	71208	40.5	25
0	71379	40.6	24
0	71568	40.7	25
0	71761	40.8	25
0	71930	40.9	25
0	72125	41	25
0	72290	41.1	25
0	72497	41.2	25
0	72666	41.3	25
0	72817	41.4	25
0	72976	41.5	25
0	73145	41.6	25
0	73298	41.7	25
0	73505	41.8	25
0	73648	41.9	24
0	73833	42	25
0	73996	42.1	22
0	74163	42.2	25
0	74310	42.3	2
0	74499	42.4	0
0	74662	42.5	25
0	74859	42.6	24
0	75036	42.7	25
0	75225	42.8	25
0	75396	42.9	3
0	75595	43	25
0	75784	43.1	25
0	75941	43.2	4
0	76134	43.3	25
0	76315	43.4	8
0	76504	43.5	25
0	76677	43.6	9
0	76844	43.7	0
0	77013	43.8	6
0	77190	43.9	25
0	77367	44	25
0	77528	44.1	7
0	77709	44.2	25
0	77876	44.3	25
0	78041	44.4	3
0	78220	44.5	25
0	78367	44.6	6
0	78538	44.7	25
0	78733	44.8	6
0	78922	44.9	25
0	79101	45	25
0	79242	45.1	25
0	79401	45.2	25
0	79576	45.3	24
0	79741	45.4	25
0	79906	45.5	25
0	80081	45.6	25
0	80250	45.7	25
0	80451	45.8	25
0	80642	45.9	16
0	80827	46	25
0	81032	46.1	25
0	81197	46.2	12
0	81360	46.3	0
0	81539	46.4	25
0	81738	46.5	24
0	81927	46.6	0
0	82090	46.7	0
0	82241	46.8	25
0	82426	46.9	25
0	82613	47	24
0	82796	47.1	4
0	82951	47.2	24
0	83110	47.3	3
0	83277	47.4	25
0	83462	47.5	25
0	83625	47.6	25
0	83792	47.7	25
0	83971	47.8	24
0	84142	47.9	25
0	84319	48	12
0	84514	48.1	25
0	84679	48.2	10
0	84844	48.3	25
0	85019	48.4	25
0	85192	48.5	4
0	85373	48.6	25
0	85556	48.7	23
0	85745	48.8	21
0	85928	48.9	24
0	86115	49	5
0	86304	49.1	25
0	86501	49.2	25
0	86680	49.3	10
0	86851	49.4	11
0	87038	49.5	25
0	87209	49.6	25
0	87354	49.7	25
0	87531	49.8	25
0	87734	49.9	6
0	87917	50	25
0	88088	50.1	25
0	88237	50.2	12
0	88432	50.3	25
0	88593	50.4	3
0	88758	50.5	25
0	88951	50.6	16
0	89150	50.7	25
0	89329	50.8	13
0	89472	50.9	0
0	89617	51	25
0	89804	51.1	25
0	89939	51.2	25
0	90116	51.3	25
0	90291	51.4	24
0	90464	51.5	21
0	90641	51.6	25
0	90810	51.7	25
0	90979	51.8	16
0	91160	51.9	25
0	91335	52	8
0	91522	52.1	25
0	91689	52.2	23
0	91880	52.3	25
0	92073	52.4	25
0	92264	52.5	25
0	92433	52.6	12
0	92586	52.7	25
0	92739	52.8	24
0	92870	52.9	5
0	93083	53	25
0	93262	53.1	25
0	93433	53.2	25
0	93600	53.3	9
0	93751	53.4	25
0	93904	53.5	25
0	94043	53.6	15
0	94216	53.7	25
0	94359	53.8	25
0	94522	53.9	16
0	94687	54	25
0	94856	54.1	9
0	95041	54.2	25
0	95200	54.3	17
0	95375	54.4	25
0	95532	54.5	25
0	95709	54.6	25
0	95886	54.7	16
0	96033	54.8	25
0	96190	54.9	20
0	96331	55	0
0	96512	55.1	25
0	96667	55.2	16
0	96854	55.3	0
0	97031	55.4	25
0	97218	55.5	25
0	97389	55.6	25
0	97570	55.7	25
0	97735	55.8	25
0	97960	55.9	25
0	98125	56	9
0	98284	56.1	25
0	98467	56.2	25
0	98624	56.3	25
0	98813	56.4	25
0	98984	56.5	14
0	99165	56.6	25
0	99358	56.7	25
0	99541	56.8	3
0	99706	56.9	0
0	99873	57	25
0	100038	57.1	2
0	100215	57.2	25
0	100380	57.3	25
0	100577	57.4	25
0	100754	57.5	19
0	100913	57.6	25
0	101072	57.7	25
0	101245	57.8	25
0	101390	57.9	25
0	101583	58	25
0	101784	58.1	25
0	101949	58.2	10
0	102142	58.3	0
0	102349	58.4	25
0	102504	58.5	16
0	102701	58.6	25
0	102862	58.7	25
0	103029	58.8	25
0	103230	58.9	25
0	103411	59	25
0	103610	59.1	25
0	103787	59.2	25
0	103974	59.3	19
0	104143	59.4	0
0	104320	59.5	25
0	104481	59.6	11
0	104662	59.7	25
0	104829	59.8	25
0	105006	59.9	5
0	105183	60	25
0	105364	60.1	25
0	105553	60.2	24
0	105752	60.3	25
0	105951	60.4	12
0	106112	60.5	25
0	106281	60.6	25
0	106464	60.7	25
0	106633	60.8	22
0	106816	60.9	25
0	106983	61	25
0	107172	61.1	25
0	107357	61.2	5
0	107526	61.3	25
0	107683	61.4	23
0	107830	61.5	25
0	107975	61.6	11
0	108158	61.7	25
0	108329	61.8	20
0	108488	61.9	0
0	108683	62	25
0	108868	62.1	10
0	109065	62.2	25
0	109232	62.3	13
0	109393	62.4	25
0	109544	62.5	25
0	109721	62.6	25
0	109888	62.7	2
0	110069	62.8	25
0	110240	62.9	25
0	110403	63	25
0	110584	63.1	25
0	110747	63.2	25
0	110924	63.3	25
0	111095	63.4	24
0	111300	63.5	21
0	111491	63.6	25
0	111660	63.7	25
0	111821	63.8	25
0	112004	63.9	11
0	112177	64	25
0	112344	64.1	6
0	112525	64.2	25
0	112706	64.3	6
0	112927	64.4	25
0	113086	64.5	25
0	113247	64.6	25
0	113414	64.7	25
0	113589	64.8	19
0	113756	64.9	25
0	113935	65	24
0	114120	65.1	19
0	114291	65.2	25
0	114464	65.3	13
0	114627	65.4	25
0	114806	65.5	18
0	114979	65.6	25
0	115170	65.7	25
0	115351	65.8	25
0	115516	65.9	25
0	115669	66	25
0	115864	66.1	25
0	116045	66.2	25
0	116230	66.3	8
0	116399	66.4	25
0	116584	66.5	25
0	116757	66.6	6
0	116928	66.7	25
0	117103	66.8	25
0	117286	66.9	25
0	117483	67	25
0	117666	67.1	23
0	117853	67.2	17
0	118010	67.3	0
0	118217	67.4	25
0	118380	67.5	7
0	118573	67.6	25
0	118730	67.7	6
0	118923	67.8	25
0	119114	67.9	15
0	119285	68	25
0	119460	68.1	10
0	119649	68.2	3
0	119822	68.3	25
0	120005	68.4	25
0	120188	68.5	25
0	120365	68.6	25
0	120536	68.7	12
0	120735	68.8	25
0	120904	68.9	25
0	121067	69	25
0	121274	69.1	25
0	121435	69.2	25
0	121604	69.3	25
0	121761	69.4	19
0	121930	69.5	25
0	122101	69.6	25
0	122268	69.7	17
0	122437	69.8	25
0	122608	69.9	17
0	122827	70	25
1	346	0.2	8.58278e-06
1	346	0.2	0.013084294451
1	346	0.2	0.035797705576
1	346	0.2	0.070715168839
1	883	0.5	0.287618949486
1	883	0.5	0.295846384472
1	1360	0.8	0.551930852373
1	1360	0.8	0.558460705222
1	1360	0.8	0.579640669586
1	1724	1	0.626911832854
1	1724	1	0.649934297327
1	1724	1	0.68873347675
1	1724	1	0.734936813825
1	1724	1	0.746936633073
1	2072	1.2	0.555928194333
1	2072	1.2	0.560726441919
1	2072	1.2	0.677854203166
1	2072	1.2	0.698445254754
1	2072	1.2	0.755739613837
1	2072	1.2	0.774036083763
1	2072	1.2	0.786709813391
1	2072	1.2	0.819207707784
1	2241	1.3	0.631473770841
1	2241	1.3	0.65517189296
1	2601	1.5	0.744996063428
1	2601	1.5	0.765885448444
1	2601	1.5	0.801107444614
1	2967	1.7	0.871057849957
1	2967	1.7	0.90047656105
1	2967	1.7	0.93792728752
1	3303	1.9	0.931569321303
1	3303	1.9	0.946167415502
1	3303	1.9	0.994217973152
1	3303	1.9	1.012198437185
1	3303	1.9	1.027982478262
1	3834	2.2	1.213316168132
1	4375	2.5	1.333987492314
1	4375	2.5	1.345847642075
1	4375	2.5	1.418254644783
1	4679	2.7	1.353363734577
1	4679	2.7	1.468125293037
1	4679	2.7	1.497193641325
1	4679	2.7	1.507726996638
1	5021	2.9	1.123115323589
1	5021	2.9	1.198913941608
1	5021	2.9	1.227795935361
1	5021	2.9	1.26775821288
1	5021	2.9	1.508076467031
1	5021	2.9	1.534045164116
1	5379	3.1	1.098709688678
1	5379	3.1	1.139551736223
1	5379	3.1	1.161410093165
1	5379	3.1	1.185909941249
1	5379	3.1	1.236818573807
1	5379	3.1	1.274040177636
1	5379	3.1	1.275442463554
1	5379	3.1	1.290362074847
1	5735	3.3	1.211333550255
1	5735	3.3	1.275735271753
1	6057	3.5	1.288921161025
1	6057	3.5	1.299410881247
1	6057	3.5	1.391624170766
1	6057	3.5	1.398098789285
1	6447	3.7	1.40711565678
1	6447	3.7	1.444621625345
1	6789	3.9	1.135012897271
1	6789	3.9	1.205503935101
1	6789	3.9	1.243862580967
1	6789	3.9	1.298566797393
1	6789	3.9	1.389400910886
1	6789	3.9	1.422171288563
1	6789	3.9	1.460408949626
1	6789	3.9	1.490255593613
1	6789	3.9	1.541153969968
1	6789	3.9	1.554842560739
1	6789	3.9	1.582758359994
1	7471	4.3	1.52842165355
1	7813	4.5	0.464040612559
1	7813	4.5	0.480122081437
1	7813	4.5	0.485303870698
1	7813	4.5	0.488497743596
1	7813	4.5	0.522925799593
1	7813	4.5	0.581106297034
1	7813	4.5	0.65965818234
1	7813	4.5	0.665340109991
1	7813	4.5	0.709228104355
1	7813	4.5	0.750285358225
1	7813	4.5	0.890138386421
1	7813	4.5	0.89385381762
1	7813	4.5	0.896035480214
1	7813	4.5	0.924763906113
1	7813	4.5	0.927785530556
1	7813	4.5	0.941792341671
1	7813	4.5	0.985679194233
1	7813	4.5	1.071571208794
1	7813	4.5	1.128330793805
1	7813	4.5	1.255222255273
1	7813	4.5	1.296142229526
1	7813	4.5	1.32585705297
1	7813	4.5	1.354464814964
1	7813	4.5	1.369264346717
1	7813	4.5	1.495315924953
1	7813	4.5	1.536725885879
1	7813	4.5	1.562225182302
1	7813	4.5	1.565436305658
1	7813	4.5	1.659000185991
1	8356	4.8	0.641852659173
1	8356	4.8	0.66288481492
1	8356	4.8	0.708443639351
1	8742	5	0.539174443749
1	8742	5	0.559377572599
1	8742	5	0.579793498763
1	8742	5	0.601254229397
1	8742	5	0.602153349963
1	8742	5	0.652937142074
1	8742	5	0.673916246623
1	8742	5	0.710780476083
1	8742	5	0.734829909596
1	8742	5	0.777415291475
1	8742	5	0.813382850845
1	9265	5.3	0.584479331235
1	9265	5.3	0.658324813911
1	9265	5.3	0.660289462953
1	9265	5.3	0.664412306574
1	9265	5.3	0.688948815023
1	9265	5.3	0.7388173132
1	9265	5.3	0.739353614318
1	9265	5.3	0.809104162549
1	9619	5.5	0.615256161181
1	9619	5.5	0.658653596975
1	9619	5.5	0.677389105818
1	9619	5.5	0.751752991484
1	9619	5.5	0.775004423403
1	9961	5.7	0.032231115454
1	9961	5.7	0.041941062804
1	9961	5.7	0.049348077916
1	9961	5.7	0.067681826237
1	9961	5.7	0.127384157113
1	9961	5.7	0.17061709617
1	9961	5.7	0.243159674801
1	9961	5.7	0.255939861965
1	9961	5.7	0.263088258855
1	9961	5.7	0.314869436268
1	9961	5.7	0.350619830818
1	9961	5.7	0.356539952313
1	9961	5.7	0.365779789304
1	9961	5.7	0.551931144005
1	9961	5.7	0.553045480256
1	9961	5.7	0.553840902821
1	9961	5.7	0.565451640303
1	9961	5.7	0.643459559264
1	9961	5.7	0.675202843508
1	9961	5.7	0.717270340228
1	10428	6	0.195730637931
1	10428	6	0.20482799787
1	10428	6	0.230404517535
1	10428	6	0.24528928674
1	10428	6	0.261630028456
1	10428	6	0.273963416119
1	10768	6.2	0.276783135767
1	10768	6.2	0.374042625423
1	10768	6.2	0.386044495309
1	11082	6.4	0.344106531377
1	11082	6.4	0.357213858472
1	11082	6.4	0.402363692841
1	11082	6.4	0.404699657544
1	11082	6.4	0.461652472202
1	11430	6.6	0.443170599183
1	11430	6.6	0.543242209104
1	11802	6.8	0.554043043725
1	11802	6.8	0.558011095397
1	11802	6.8	0.599915218827
1	12381	7.1	0.516248963038
1	12381	7.1	0.543437982326
1	12381	7.1	0.605979608139
1	12381	7.1	0.644358437524
1	12381	7.1	0.652035187988
1	12381	7.1	0.668139465085
1	12381	7.1	0.701604429539
1	12381	7.1	0.716164143287
1	12381	7.1	0.720949239532
1	12381	7.1	0.771203703829
1	12381	7.1	0.842356462807
1	12749	7.3	0.433522282991
1	12749	7.3	0.437231190132
1	12749	7.3	0.465534932907
1	12749	7.3	0.492613735356
1	12749	7.3	0.51091859241
1	12749	7.3	0.557693367612
1	12749	7.3	0.599654856132
1	12749	7.3	0.663234617017
1	12749	7.3	0.714878437777
1	12922	7.4	0.36291138642
1	12922	7.4	0.473847117177
1	13318	7.6	0.274965098267
1	13318	7.6	0.296106255613
1	13318	7.6	0.307314897015
1	13318	7.6	0.324244307254
1	13318	7.6	0.327825825973
1	13318	7.6	0.343447049867
1	13318	7.6	0.408963148598
1	13318	7.6	0.511919638628
1	13318	7.6	0.537269034442
1	13318	7.6	0.553954431607
1	13318	7.6	0.557479808938
1	13668	7.8	0.119412798714
1	13668	7.8	0.181915210838
1	13668	7.8	0.239391652211
1	13668	7.8	0.24033047354
1	13668	7.8	0.252000445979
1	13668	7.8	0.259792677471
1	13668	7.8	0.268241310381
1	13668	7.8	0.342124170923
1	13668	7.8	0.36817453162
1	13668	7.8	0.385640651937
1	14038	8	0.132331002597
1	14038	8	0.189803787592
1	14038	8	0.192091516175
1	14219	8.1	0.006855304904
1	14597	8.3	0.01695678356
1	14597	8.3	0.043853018276
1	14597	8.3	0.104304810782
1	14597	8.3	0.167033080045
1	14597	8.3	0.191428386365
1	14778	8.4	0.005006562301
1	14778	8.4	0.019065569605
1	15160	8.6	0.012211700561
1	15160	8.6	0.039874361414
1	15160	8.6	0.040139142452
1	15160	8.6	0.041089333354
1	15160	8.6	0.060604478964
1	15160	8.6	0.084284427308
1	15160	8.6	0.094323052179
1	15160	8.6	0.134883369195
1	15160	8.6	0.17173160162
1	15520	8.8	0.182154283319
1	15520	8.8	0.190916078499
1	15520	8.8	0.194474138812
1	15842	9	0.210699364087
1	15842	9	0.238535991155
1	15842	9	0.242119989153
1	15842	9	0.291646143262
1	15842	9	0.296287799308
1	15842	9	0.304997397752
1	15842	9	0.326077073036
1	16180	9.2	0.129378318337