version 3
run binomialCQI-240-20231215-10:39:46-2560
attr configname binomialCQI
attr datetime 20231215-10:39:46
attr datetimef 20231215-103946
attr experiment binomialCQI
attr inifile omnetpp.ini
attr iterationvars "$simulationTime=70s, $nUser=200, $lambda=200"
attr iterationvarsd simulationTime=70s/nUser=200/lambda=200
attr iterationvarsf simulationTime=70s,nUser=200,lambda=200-
attr measurement "$simulationTime=70s, $nUser=200, $lambda=200"
attr network Network
attr processid 2560
attr repetition 0
attr replication #0
attr resultdir results
attr runnumber 240
attr seedset 0
itervar lambda 200
itervar nUser 200
itervar simulationTime 70s
config **.Users[*].CQIdistribution "\"binomial\""
config network Network
config cpu-time-limit 60s
config sim-time-limit 70s
config num-rngs 600
config repeat 10
config seed-set 0
config **.NUM_USER 200
config **.LAMBDA 200
config **.CQIArrayLength 15
config **.CQIValues "\" 3 3 6 11 15 20 25 36 39 50 63 72 80 93 93 \""
config **.frameSize 25
config **.timeSlot 0.1

vector 0 Network.BS simFrameStat:vector ETV
attr "" ""
attr recordingmode vector
attr source simFrame
attr title "Occupied frame slots"
vector 1 Network.Users[0] packetDelayStat:vector ETV
attr "" ""
attr recordingmode vector
attr source packetDelay
attr title "Packet delay"
vector 2 Network.Users[0] packetsReceivedStat:vector ETV
attr "" ""
attr recordingmode vector
attr source packetsReceived
attr title "Packets received per timeslot"
vector 3 Network.Users[0] throughputStat:vector ETV
attr "" ""
attr recordingmode vector
attr source throughput
attr title Throughput
vector 4 Network.Users[1] packetsReceivedStat:vector ETV
attr "" ""
attr recordingmode vector
attr source packetsReceived
attr title "Packets received per timeslot"
vector 5 Network.Users[1] throughputStat:vector ETV
attr "" ""
attr recordingmode vector
attr source throughput
attr title Throughput
vector 6 Network.Users[2] packetsReceivedStat:vector ETV
attr "" ""
attr recordingmode vector
attr source packetsReceived
attr title "Packets received per timeslot"
vector 7 Network.Users[2] throughputStat:vector ETV
attr "" ""
attr recordingmode vector
attr source throughput
attr title Throughput
vector 8 Network.Users[3] packetDelayStat:vector ETV
attr "" ""
attr recordingmode vector
attr source packetDelay
attr title "Packet delay"
vector 9 Network.Users[3] packetsReceivedStat:vector ETV
attr "" ""
attr recordingmode vector
attr source packetsReceived
attr title "Packets received per timeslot"
vector 10 Network.Users[3] throughputStat:vector ETV
attr "" ""
attr recordingmode vector
attr source throughput
attr title Throughput
vector 11 Network.Users[4] packetsReceivedStat:vector ETV
attr "" ""
attr recordingmode vector
attr source packetsReceived
attr title "Packets received per timeslot"
vector 12 Network.Users[4] throughputStat:vector ETV
attr "" ""
attr recordingmode vector
attr source throughput
attr title Throughput
vector 13 Network.Users[5] packetsReceivedStat:vector ETV
attr "" ""
attr recordingmode vector
attr source packetsReceived
attr title "Packets received per timeslot"
vector 14 Network.Users[5] throughputStat:vector ETV
attr "" ""
attr recordingmode vector
attr source throughput
attr title Throughput
vector 15 Network.Users[6] packetsReceivedStat:vector ETV
attr "" ""
attr recordingmode vector
attr source packetsReceived
attr title "Packets received per timeslot"
vector 16 Network.Users[6] throughputStat:vector ETV
attr "" ""
attr recordingmode vector
attr source throughput
attr title Throughput
vector 17 Network.Users[7] packetsReceivedStat:vector ETV
attr "" ""
attr recordingmode vector
attr source packetsReceived
attr title "Packets received per timeslot"
vector 18 Network.Users[7] throughputStat:vector ETV
attr "" ""
attr recordingmode vector
attr source throughput
attr title Throughput
vector 19 Network.Users[8] packetsReceivedStat:vector ETV
attr "" ""
attr recordingmode vector
attr source packetsReceived
attr title "Packets received per timeslot"
vector 20 Network.Users[8] throughputStat:vector ETV
attr "" ""
attr recordingmode vector
attr source throughput
attr title Throughput
vector 21 Network.Users[9] packetsReceivedStat:vector ETV
attr "" ""
attr recordingmode vector
attr source packetsReceived
attr title "Packets received per timeslot"
vector 22 Network.Users[9] throughputStat:vector ETV
attr "" ""
attr recordingmode vector
attr source throughput
attr title Throughput
vector 23 Network.Users[10] packetsReceivedStat:vector ETV
attr "" ""
attr recordingmode vector
attr source packetsReceived
attr title "Packets received per timeslot"
vector 24 Network.Users[10] throughputStat:vector ETV
attr "" ""
attr recordingmode vector
attr source throughput
attr title Throughput
vector 25 Network.Users[11] packetsReceivedStat:vector ETV
attr "" ""
attr recordingmode vector
attr source packetsReceived
attr title "Packets received per timeslot"
vector 26 Network.Users[11] throughputStat:vector ETV
attr "" ""
attr recordingmode vector
attr source throughput
attr title Throughput
vector 27 Network.Users[12] packetsReceivedStat:vector ETV
attr "" ""
attr recordingmode vector
attr source packetsReceived
attr title "Packets received per timeslot"
vector 28 Network.Users[12] throughputStat:vector ETV
attr "" ""
attr recordingmode vector
attr source throughput
attr title Throughput
vector 29 Network.Users[13] packetsReceivedStat:vector ETV
attr "" ""
attr recordingmode vector
attr source packetsReceived
attr title "Packets received per timeslot"
vector 30 Network.Users[13] throughputStat:vector ETV
attr "" ""
attr recordingmode vector
attr source throughput
attr title Throughput
vector 31 Network.Users[14] packetsReceivedStat:vector ETV
attr "" ""
attr recordingmode vector
attr source packetsReceived
attr title "Packets received per timeslot"
vector 32 Network.Users[14] throughputStat:vector ETV
attr "" ""
attr recordingmode vector
attr source throughput
attr title Throughput
vector 33 Network.Users[15] packetsReceivedStat:vector ETV
attr "" ""
attr recordingmode vector
attr source packetsReceived
attr title "Packets received per timeslot"
vector 34 Network.Users[15] throughputStat:vector ETV
attr "" ""
attr recordingmode vector
attr source throughput
attr title Throughput
vector 35 Network.Users[16] packetsReceivedStat:vector ETV
attr "" ""
attr recordingmode vector
attr source packetsReceived
attr title "Packets received per timeslot"
vector 36 Network.Users[16] throughputStat:vector ETV
attr "" ""
attr recordingmode vector
attr source throughput
attr title Throughput
vector 37 Network.Users[17] packetsReceivedStat:vector ETV
attr "" ""
attr recordingmode vector
attr source packetsReceived
attr title "Packets received per timeslot"
vector 38 Network.Users[17] throughputStat:vector ETV
attr "" ""
attr recordingmode vector
attr source throughput
attr title Throughput
vector 39 Network.Users[18] packetsReceivedStat:vector ETV
attr "" ""
attr recordingmode vector
attr source packetsReceived
attr title "Packets received per timeslot"
vector 40 Network.Users[18] throughputStat:vector ETV
attr "" ""
attr recordingmode vector
attr source throughput
attr title Throughput
vector 41 Network.Users[19] packetsReceivedStat:vector ETV
attr "" ""
attr recordingmode vector
attr source packetsReceived
attr title "Packets received per timeslot"
vector 42 Network.Users[19] throughputStat:vector ETV
attr "" ""
attr recordingmode vector
attr source throughput
attr title Throughput
vector 43 Network.Users[20] packetsReceivedStat:vector ETV
attr "" ""
attr recordingmode vector
attr source packetsReceived
attr title "Packets received per timeslot"
vector 44 Network.Users[20] throughputStat:vector ETV
attr "" ""
attr recordingmode vector
attr source throughput
attr title Throughput
vector 45 Network.Users[21] packetsReceivedStat:vector ETV
attr "" ""
attr recordingmode vector
attr source packetsReceived
attr title "Packets received per timeslot"
vector 46 Network.Users[21] throughputStat:vector ETV
attr "" ""
attr recordingmode vector
attr source throughput
attr title Throughput
vector 47 Network.Users[22] packetsReceivedStat:vector ETV
attr "" ""
attr recordingmode vector
attr source packetsReceived
attr title "Packets received per timeslot"
vector 48 Network.Users[22] throughputStat:vector ETV
attr "" ""
attr recordingmode vector
attr source throughput
attr title Throughput
vector 49 Network.Users[23] packetsReceivedStat:vector ETV
attr "" ""
attr recordingmode vector
attr source packetsReceived
attr title "Packets received per timeslot"
vector 50 Network.Users[23] throughputStat:vector ETV
attr "" ""
attr recordingmode vector
attr source throughput
attr title Throughput
vector 51 Network.Users[24] packetsReceivedStat:vector ETV
attr "" ""
attr recordingmode vector
attr source packetsReceived
attr title "Packets received per timeslot"
vector 52 Network.Users[24] throughputStat:vector ETV
attr "" ""
attr recordingmode vector
attr source throughput
attr title Throughput
vector 53 Network.Users[25] packetsReceivedStat:vector ETV
attr "" ""
attr recordingmode vector
attr source packetsReceived
attr title "Packets received per timeslot"
vector 54 Network.Users[25] throughputStat:vector ETV
attr "" ""
attr recordingmode vector
attr source throughput
attr title Throughput
vector 55 Network.Users[26] packetsReceivedStat:vector ETV
attr "" ""
attr recordingmode vector
attr source packetsReceived
attr title "Packets received per timeslot"
vector 56 Network.Users[26] throughputStat:vector ETV
attr "" ""
attr recordingmode vector
attr source throughput
attr title Throughput
vector 57 Network.Users[27] packetsReceivedStat:vector ETV
attr "" ""
attr recordingmode vector
attr source packetsReceived
attr title "Packets received per timeslot"
vector 58 Network.Users[27] throughputStat:vector ETV
attr "" ""
attr recordingmode vector
attr source throughput
attr title Throughput
vector 59 Network.Users[28] packetsReceivedStat:vector ETV
attr "" ""
attr recordingmode vector
attr source packetsReceived
attr title "Packets received per timeslot"
vector 60 Network.Users[28] throughputStat:vector ETV
attr "" ""
attr recordingmode vector
attr source throughput
attr title Throughput
vector 61 Network.Users[29] packetsReceivedStat:vector ETV
attr "" ""
attr recordingmode vector
attr source packetsReceived
attr title "Packets received per timeslot"
vector 62 Network.Users[29] throughputStat:vector ETV
attr "" ""
attr recordingmode vector
attr source throughput
attr title Throughput
vector 63 Network.Users[30] packetsReceivedStat:vector ETV
attr "" ""
attr recordingmode vector
attr source packetsReceived
attr title "Packets received per timeslot"
vector 64 Network.Users[30] throughputStat:vector ETV
attr "" ""
attr recordingmode vector
attr source throughput
attr title Throughput
vector 65 Network.Users[31] packetsReceivedStat:vector ETV
attr "" ""
attr recordingmode vector
attr source packetsReceived
attr title "Packets received per timeslot"
vector 66 Network.Users[31] throughputStat:vector ETV
attr "" ""
attr recordingmode vector
attr source throughput
attr title Throughput
vector 67 Network.Users[32] packetsReceivedStat:vector ETV
attr "" ""
attr recordingmode vector
attr source packetsReceived
attr title "Packets received per timeslot"
vector 68 Network.Users[32] throughputStat:vector ETV
attr "" ""
attr recordingmode vector
attr source throughput
attr title Throughput
vector 69 Network.Users[33] packetsReceivedStat:vector ETV
attr "" ""
attr recordingmode vector
attr source packetsReceived
attr title "Packets received per timeslot"
vector 70 Network.Users[33] throughputStat:vector ETV
attr "" ""
attr recordingmode vector
attr source throughput
attr title Throughput
vector 71 Network.Users[34] packetsReceivedStat:vector ETV
attr "" ""
attr recordingmode vector
attr source packetsReceived
attr title "Packets received per timeslot"
vector 72 Network.Users[34] throughputStat:vector ETV
attr "" ""
attr recordingmode vector
attr source throughput
attr title Throughput
vector 73 Network.Users[35] packetsReceivedStat:vector ETV
attr "" ""
attr recordingmode vector
attr source packetsReceived
attr title "Packets received per timeslot"
vector 74 Network.Users[35] throughputStat:vector ETV
attr "" ""
attr recordingmode vector
attr source throughput
attr title Throughput
vector 75 Network.Users[36] packetsReceivedStat:vector ETV
attr "" ""
attr recordingmode vector
attr source packetsReceived
attr title "Packets received per timeslot"
vector 76 Network.Users[36] throughputStat:vector ETV
attr "" ""
attr recordingmode vector
attr source throughput
attr title Throughput
vector 77 Network.Users[37] packetsReceivedStat:vector ETV
attr "" ""
attr recordingmode vector
attr source packetsReceived
attr title "Packets received per timeslot"
vector 78 Network.Users[37] throughputStat:vector ETV
attr "" ""
attr recordingmode vector
attr source throughput
attr title Throughput
vector 79 Network.Users[38] packetsReceivedStat:vector ETV
attr "" ""
attr recordingmode vector
attr source packetsReceived
attr title "Packets received per timeslot"
vector 80 Network.Users[38] throughputStat:vector ETV
attr "" ""
attr recordingmode vector
attr source throughput
attr title Throughput
vector 81 Network.Users[39] packetsReceivedStat:vector ETV
attr "" ""
attr recordingmode vector
attr source packetsReceived
attr title "Packets received per timeslot"
vector 82 Network.Users[39] throughputStat:vector ETV
attr "" ""
attr recordingmode vector
attr source throughput
attr title Throughput
vector 83 Network.Users[40] packetsReceivedStat:vector ETV
attr "" ""
attr recordingmode vector
attr source packetsReceived
attr title "Packets received per timeslot"
vector 84 Network.Users[40] throughputStat:vector ETV
attr "" ""
attr recordingmode vector
attr source throughput
attr title Throughput
vector 85 Network.Users[41] packetsReceivedStat:vector ETV
attr "" ""
attr recordingmode vector
attr source packetsReceived
attr title "Packets received per timeslot"
vector 86 Network.Users[41] throughputStat:vector ETV
attr "" ""
attr recordingmode vector
attr source throughput
attr title Throughput
vector 87 Network.Users[42] packetsReceivedStat:vector ETV
attr "" ""
attr recordingmode vector
attr source packetsReceived
attr title "Packets received per timeslot"
vector 88 Network.Users[42] throughputStat:vector ETV
attr "" ""
attr recordingmode vector
attr source throughput
attr title Throughput
vector 89 Network.Users[43] packetsReceivedStat:vector ETV
attr "" ""
attr recordingmode vector
attr source packetsReceived
attr title "Packets received per timeslot"
vector 90 Network.Users[43] throughputStat:vector ETV
attr "" ""
attr recordingmode vector
attr source throughput
attr title Throughput
vector 91 Network.Users[44] packetsReceivedStat:vector ETV
attr "" ""
attr recordingmode vector
attr source packetsReceived
attr title "Packets received per timeslot"
vector 92 Network.Users[44] throughputStat:vector ETV
attr "" ""
attr recordingmode vector
attr source throughput
attr title Throughput
vector 93 Network.Users[45] packetsReceivedStat:vector ETV
attr "" ""
attr recordingmode vector
attr source packetsReceived
attr title "Packets received per timeslot"
vector 94 Network.Users[45] throughputStat:vector ETV
attr "" ""
attr recordingmode vector
attr source throughput
attr title Throughput
vector 95 Network.Users[46] packetsReceivedStat:vector ETV
attr "" ""
attr recordingmode vector
attr source packetsReceived
attr title "Packets received per timeslot"
vector 96 Network.Users[46] throughputStat:vector ETV
attr "" ""
attr recordingmode vector
attr source throughput
attr title Throughput
vector 97 Network.Users[47] packetsReceivedStat:vector ETV
attr "" ""
attr recordingmode vector
attr source packetsReceived
attr title "Packets received per timeslot"
vector 98 Network.Users[47] throughputStat:vector ETV
attr "" ""
attr recordingmode vector
attr source throughput
attr title Throughput
vector 99 Network.Users[48] packetsReceivedStat:vector ETV
attr "" ""
attr recordingmode vector
attr source packetsReceived
attr title "Packets received per timeslot"
vector 100 Network.Users[48] throughputStat:vector ETV
attr "" ""
attr recordingmode vector
attr source throughput
attr title Throughput
vector 101 Network.Users[49] packetsReceivedStat:vector ETV
attr "" ""
attr recordingmode vector
attr source packetsReceived
attr title "Packets received per timeslot"
vector 102 Network.Users[49] throughputStat:vector ETV
attr "" ""
attr recordingmode vector
attr source throughput
attr title Throughput
vector 103 Network.Users[50] packetsReceivedStat:vector ETV
attr "" ""
attr recordingmode vector
attr source packetsReceived
attr title "Packets received per timeslot"
vector 104 Network.Users[50] throughputStat:vector ETV
attr "" ""
attr recordingmode vector
attr source throughput
attr title Throughput
vector 105 Network.Users[51] packetsReceivedStat:vector ETV
attr "" ""
attr recordingmode vector
attr source packetsReceived
attr title "Packets received per timeslot"
vector 106 Network.Users[51] throughputStat:vector ETV
attr "" ""
attr recordingmode vector
attr source throughput
attr title Throughput
vector 107 Network.Users[52] packetsReceivedStat:vector ETV
attr "" ""
attr recordingmode vector
attr source packetsReceived
attr title "Packets received per timeslot"
vector 108 Network.Users[52] throughputStat:vector ETV
attr "" ""
attr recordingmode vector
attr source throughput
attr title Throughput
vector 109 Network.Users[53] packetsReceivedStat:vector ETV
attr "" ""
attr recordingmode vector
attr source packetsReceived
attr title "Packets received per timeslot"
vector 110 Network.Users[53] throughputStat:vector ETV
attr "" ""
attr recordingmode vector
attr source throughput
attr title Throughput
vector 111 Network.Users[54] packetsReceivedStat:vector ETV
attr "" ""
attr recordingmode vector
attr source packetsReceived
attr title "Packets received per timeslot"
vector 112 Network.Users[54] throughputStat:vector ETV
attr "" ""
attr recordingmode vector
attr source throughput
attr title Throughput
vector 113 Network.Users[55] packetsReceivedStat:vector ETV
attr "" ""
attr recordingmode vector
attr source packetsReceived
attr title "Packets received per timeslot"
vector 114 Network.Users[55] throughputStat:vector ETV
attr "" ""
attr recordingmode vector
attr source throughput
attr title Throughput
vector 115 Network.Users[56] packetsReceivedStat:vector ETV
attr "" ""
attr recordingmode vector
attr source packetsReceived
attr title "Packets received per timeslot"
vector 116 Network.Users[56] throughputStat:vector ETV
attr "" ""
attr recordingmode vector
attr source throughput
attr title Throughput
vector 117 Network.Users[57] packetsReceivedStat:vector ETV
attr "" ""
attr recordingmode vector
attr source packetsReceived
attr title "Packets received per timeslot"
vector 118 Network.Users[57] throughputStat:vector ETV
attr "" ""
attr recordingmode vector
attr source throughput
attr title Throughput
vector 119 Network.Users[58] packetsReceivedStat:vector ETV
attr "" ""
attr recordingmode vector
attr source packetsReceived
attr title "Packets received per timeslot"
vector 120 Network.Users[58] throughputStat:vector ETV
attr "" ""
attr recordingmode vector
attr source throughput
attr title Throughput
vector 121 Network.Users[59] packetsReceivedStat:vector ETV
attr "" ""
attr recordingmode vector
attr source packetsReceived
attr title "Packets received per timeslot"
vector 122 Network.Users[59] throughputStat:vector ETV
attr "" ""
attr recordingmode vector
attr source throughput
attr title Throughput
vector 123 Network.Users[60] packetsReceivedStat:vector ETV
attr "" ""
attr recordingmode vector
attr source packetsReceived
attr title "Packets received per timeslot"
vector 124 Network.Users[60] throughputStat:vector ETV
attr "" ""
attr recordingmode vector
attr source throughput
attr title Throughput
vector 125 Network.Users[61] packetsReceivedStat:vector ETV
attr "" ""
attr recordingmode vector
attr source packetsReceived
attr title "Packets received per timeslot"
vector 126 Network.Users[61] throughputStat:vector ETV
attr "" ""
attr recordingmode vector
attr source throughput
attr title Throughput
vector 127 Network.Users[62] packetsReceivedStat:vector ETV
attr "" ""
attr recordingmode vector
attr source packetsReceived
attr title "Packets received per timeslot"
vector 128 Network.Users[62] throughputStat:vector ETV
attr "" ""
attr recordingmode vector
attr source throughput
attr title Throughput
vector 129 Network.Users[63] packetsReceivedStat:vector ETV
attr "" ""
attr recordingmode vector
attr source packetsReceived
attr title "Packets received per timeslot"
vector 130 Network.Users[63] throughputStat:vector ETV
attr "" ""
attr recordingmode vector
attr source throughput
attr title Throughput
vector 131 Network.Users[64] packetsReceivedStat:vector ETV
attr "" ""
attr recordingmode vector
attr source packetsReceived
attr title "Packets received per timeslot"
vector 132 Network.Users[64] throughputStat:vector ETV
attr "" ""
attr recordingmode vector
attr source throughput
attr title Throughput
vector 133 Network.Users[65] packetsReceivedStat:vector ETV
attr "" ""
attr recordingmode vector
attr source packetsReceived
attr title "Packets received per timeslot"
vector 134 Network.Users[65] throughputStat:vector ETV
attr "" ""
attr recordingmode vector
attr source throughput
attr title Throughput
vector 135 Network.Users[66] packetsReceivedStat:vector ETV
attr "" ""
attr recordingmode vector
attr source packetsReceived
attr title "Packets received per timeslot"
vector 136 Network.Users[66] throughputStat:vector ETV
attr "" ""
attr recordingmode vector
attr source throughput
attr title Throughput
vector 137 Network.Users[67] packetsReceivedStat:vector ETV
attr "" ""
attr recordingmode vector
attr source packetsReceived
attr title "Packets received per timeslot"
vector 138 Network.Users[67] throughputStat:vector ETV
attr "" ""
attr recordingmode vector
attr source throughput
attr title Throughput
vector 139 Network.Users[68] packetsReceivedStat:vector ETV
attr "" ""
attr recordingmode vector
attr source packetsReceived
attr title "Packets received per timeslot"
vector 140 Network.Users[68] throughputStat:vector ETV
attr "" ""
attr recordingmode vector
attr source throughput
attr title Throughput
vector 141 Network.Users[69] packetsReceivedStat:vector ETV
attr "" ""
attr recordingmode vector
attr source packetsReceived
attr title "Packets received per timeslot"
vector 142 Network.Users[69] throughputStat:vector ETV
attr "" ""
attr recordingmode vector
attr source throughput
attr title Throughput
vector 143 Network.Users[70] packetsReceivedStat:vector ETV
attr "" ""
attr recordingmode vector
attr source packetsReceived
attr title "Packets received per timeslot"
vector 144 Network.Users[70] throughputStat:vector ETV
attr "" ""
attr recordingmode vector
attr source throughput
attr title Throughput
vector 145 Network.Users[71] packetsReceivedStat:vector ETV
attr "" ""
attr recordingmode vector
attr source packetsReceived
attr title "Packets received per timeslot"
vector 146 Network.Users[71] throughputStat:vector ETV
attr "" ""
attr recordingmode vector
attr source throughput
attr title Throughput
vector 147 Network.Users[72] packetsReceivedStat:vector ETV
attr "" ""
attr recordingmode vector
attr source packetsReceived
attr title "Packets received per timeslot"
vector 148 Network.Users[72] throughputStat:vector ETV
attr "" ""
attr recordingmode vector
attr source throughput
attr title Throughput
vector 149 Network.Users[73] packetsReceivedStat:vector ETV
attr "" ""
attr recordingmode vector
attr source packetsReceived
attr title "Packets received per timeslot"
vector 150 Network.Users[73] throughputStat:vector ETV
attr "" ""
attr recordingmode vector
attr source throughput
attr title Throughput
vector 151 Network.Users[74] packetsReceivedStat:vector ETV
attr "" ""
attr recordingmode vector
attr source packetsReceived
attr title "Packets received per timeslot"
vector 152 Network.Users[74] throughputStat:vector ETV
attr "" ""
attr recordingmode vector
attr source throughput
attr title Throughput
vector 153 Network.Users[75] packetsReceivedStat:vector ETV
attr "" ""
attr recordingmode vector
attr source packetsReceived
attr title "Packets received per timeslot"
vector 154 Network.Users[75] throughputStat:vector ETV
attr "" ""
attr recordingmode vector
attr source throughput
attr title Throughput
vector 155 Network.Users[76] packetsReceivedStat:vector ETV
attr "" ""
attr recordingmode vector
attr source packetsReceived
attr title "Packets received per timeslot"
vector 156 Network.Users[76] throughputStat:vector ETV
attr "" ""
attr recordingmode vector
attr source throughput
attr title Throughput
vector 157 Network.Users[77] packetsReceivedStat:vector ETV
attr "" ""
attr recordingmode vector
attr source packetsReceived
attr title "Packets received per timeslot"
vector 158 Network.Users[77] throughputStat:vector ETV
attr "" ""
attr recordingmode vector
attr source throughput
attr title Throughput
vector 159 Network.Users[78] packetsReceivedStat:vector ETV
attr "" ""
attr recordingmode vector
attr source packetsReceived
attr title "Packets received per timeslot"
vector 160 Network.Users[78] throughputStat:vector ETV
attr "" ""
attr recordingmode vector
attr source throughput
attr title Throughput
vector 161 Network.Users[79] packetsReceivedStat:vector ETV
attr "" ""
attr recordingmode vector
attr source packetsReceived
attr title "Packets received per timeslot"
vector 162 Network.Users[79] throughputStat:vector ETV
attr "" ""
attr recordingmode vector
attr source throughput
attr title Throughput
vector 163 Network.Users[80] packetsReceivedStat:vector ETV
attr "" ""
attr recordingmode vector
attr source packetsReceived
attr title "Packets received per timeslot"
vector 164 Network.Users[80] throughputStat:vector ETV
attr "" ""
attr recordingmode vector
attr source throughput
attr title Throughput
vector 165 Network.Users[81] packetsReceivedStat:vector ETV
attr "" ""
attr recordingmode vector
attr source packetsReceived
attr title "Packets received per timeslot"
vector 166 Network.Users[81] throughputStat:vector ETV
attr "" ""
attr recordingmode vector
attr source throughput
attr title Throughput
vector 167 Network.Users[82] packetsReceivedStat:vector ETV
attr "" ""
attr recordingmode vector
attr source packetsReceived
attr title "Packets received per timeslot"
vector 168 Network.Users[82] throughputStat:vector ETV
attr "" ""
attr recordingmode vector
attr source throughput
attr title Throughput
vector 169 Network.Users[83] packetsReceivedStat:vector ETV
attr "" ""
attr recordingmode vector
attr source packetsReceived
attr title "Packets received per timeslot"
vector 170 Network.Users[83] throughputStat:vector ETV
attr "" ""
attr recordingmode vector
attr source throughput
attr title Throughput
vector 171 Network.Users[84] packetsReceivedStat:vector ETV
attr "" ""
attr recordingmode vector
attr source packetsReceived
attr title "Packets received per timeslot"
vector 172 Network.Users[84] throughputStat:vector ETV
attr "" ""
attr recordingmode vector
attr source throughput
attr title Throughput
vector 173 Network.Users[85] packetsReceivedStat:vector ETV
attr "" ""
attr recordingmode vector
attr source packetsReceived
attr title "Packets received per timeslot"
vector 174 Network.Users[85] throughputStat:vector ETV
attr "" ""
attr recordingmode vector
attr source throughput
attr title Throughput
vector 175 Network.Users[86] packetsReceivedStat:vector ETV
attr "" ""
attr recordingmode vector
attr source packetsReceived
attr title "Packets received per timeslot"
vector 176 Network.Users[86] throughputStat:vector ETV
attr "" ""
attr recordingmode vector
attr source throughput
attr title Throughput
vector 177 Network.Users[87] packetsReceivedStat:vector ETV
attr "" ""
attr recordingmode vector
attr source packetsReceived
attr title "Packets received per timeslot"
vector 178 Network.Users[87] throughputStat:vector ETV
attr "" ""
attr recordingmode vector
attr source throughput
attr title Throughput
vector 179 Network.Users[88] packetsReceivedStat:vector ETV
attr "" ""
attr recordingmode vector
attr source packetsReceived
attr title "Packets received per timeslot"
vector 180 Network.Users[88] throughputStat:vector ETV
attr "" ""
attr recordingmode vector
attr source throughput
attr title Throughput
vector 181 Network.Users[89] packetsReceivedStat:vector ETV
attr "" ""
attr recordingmode vector
attr source packetsReceived
attr title "Packets received per timeslot"
vector 182 Network.Users[89] throughputStat:vector ETV
attr "" ""
attr recordingmode vector
attr source throughput
attr title Throughput
vector 183 Network.Users[90] packetsReceivedStat:vector ETV
attr "" ""
attr recordingmode vector
attr source packetsReceived
attr title "Packets received per timeslot"
vector 184 Network.Users[90] throughputStat:vector ETV
attr "" ""
attr recordingmode vector