version 3
run uniformCQI-0-20231213-17:28:48-21716
attr configname uniformCQI
attr datetime 20231213-17:28:48
attr datetimef 20231213-172848
attr experiment uniformCQI
attr inifile omnetpp.ini
attr iterationvars $nUser=25
attr iterationvarsd nUser=25
attr iterationvarsf nUser=25-
attr measurement $nUser=25
attr network Network
attr processid 21716
attr repetition 0
attr replication #0
attr resultdir results
attr runnumber 0
attr seedset 0
itervar nUser 25
config **.Users[*].CQIdistribution "\"uniform\""
config network Network
config cpu-time-limit 60s
config num-rngs 600
config **.NUM_USER 25
config **.LAMBDA 3
config **.CQIArrayLength 15
config **.CQIValues "\" 3 3 6 11 15 20 25 36 39 50 63 72 80 93 93 \""
config **.frameSize 25
config **.timeSlot 0.1

vector 0 Network.BS simFrameStat:vector ETV
attr "" ""
attr recordingmode vector
attr source simFrame
attr title "Occupied frame slots"
vector 1 Network.Users[0] packetsReceivedStat:vector ETV
attr "" ""
attr recordingmode vector
attr source packetsReceived
attr title "Packets received per timeslot"
vector 2 Network.Users[0] throughputStat:vector ETV
attr "" ""
attr recordingmode vector
attr source throughput
attr title Throughput
vector 3 Network.Users[1] packetsReceivedStat:vector ETV
attr "" ""
attr recordingmode vector
attr source packetsReceived
attr title "Packets received per timeslot"
vector 4 Network.Users[1] throughputStat:vector ETV
attr "" ""
attr recordingmode vector
attr source throughput
attr title Throughput
vector 5 Network.Users[2] packetsReceivedStat:vector ETV
attr "" ""
attr recordingmode vector
attr source packetsReceived
attr title "Packets received per timeslot"
vector 6 Network.Users[2] throughputStat:vector ETV
attr "" ""
attr recordingmode vector
attr source throughput
attr title Throughput
vector 7 Network.Users[3] packetsReceivedStat:vector ETV
attr "" ""
attr recordingmode vector
attr source packetsReceived
attr title "Packets received per timeslot"
vector 8 Network.Users[3] throughputStat:vector ETV
attr "" ""
attr recordingmode vector
attr source throughput
attr title Throughput
vector 9 Network.Users[4] packetsReceivedStat:vector ETV
attr "" ""
attr recordingmode vector
attr source packetsReceived
attr title "Packets received per timeslot"
vector 10 Network.Users[4] throughputStat:vector ETV
attr "" ""
attr recordingmode vector
attr source throughput
attr title Throughput
vector 11 Network.Users[5] packetDelayStat:vector ETV
attr "" ""
attr recordingmode vector
attr source packetDelay
attr title "Packet delay"
vector 12 Network.Users[5] packetsReceivedStat:vector ETV
attr "" ""
attr recordingmode vector
attr source packetsReceived
attr title "Packets received per timeslot"
vector 13 Network.Users[5] throughputStat:vector ETV
attr "" ""
attr recordingmode vector
attr source throughput
attr title Throughput
vector 14 Network.Users[6] packetsReceivedStat:vector ETV
attr "" ""
attr recordingmode vector
attr source packetsReceived
attr title "Packets received per timeslot"
vector 15 Network.Users[6] throughputStat:vector ETV
attr "" ""
attr recordingmode vector
attr source throughput
attr title Throughput
vector 16 Network.Users[7] packetDelayStat:vector ETV
attr "" ""
attr recordingmode vector
attr source packetDelay
attr title "Packet delay"
vector 17 Network.Users[7] packetsReceivedStat:vector ETV
attr "" ""
attr recordingmode vector
attr source packetsReceived
attr title "Packets received per timeslot"
vector 18 Network.Users[7] throughputStat:vector ETV
attr "" ""
attr recordingmode vector
attr source throughput
attr title Throughput
vector 19 Network.Users[8] packetsReceivedStat:vector ETV
attr "" ""
attr recordingmode vector
attr source packetsReceived
attr title "Packets received per timeslot"
vector 20 Network.Users[8] throughputStat:vector ETV
attr "" ""
attr recordingmode vector
attr source throughput
attr title Throughput
vector 21 Network.Users[9] packetsReceivedStat:vector ETV
attr "" ""
attr recordingmode vector
attr source packetsReceived
attr title "Packets received per timeslot"
vector 22 Network.Users[9] throughputStat:vector ETV
attr "" ""
attr recordingmode vector
attr source throughput
attr title Throughput
vector 23 Network.Users[10] packetsReceivedStat:vector ETV
attr "" ""
attr recordingmode vector
attr source packetsReceived
attr title "Packets received per timeslot"
vector 24 Network.Users[10] throughputStat:vector ETV
attr "" ""
attr recordingmode vector
attr source throughput
attr title Throughput
vector 25 Network.Users[11] packetsReceivedStat:vector ETV
attr "" ""
attr recordingmode vector
attr source packetsReceived
attr title "Packets received per timeslot"
vector 26 Network.Users[11] throughputStat:vector ETV
attr "" ""
attr recordingmode vector
attr source throughput
attr title Throughput
vector 27 Network.Users[12] packetDelayStat:vector ETV
attr "" ""
attr recordingmode vector
attr source packetDelay
attr title "Packet delay"
vector 28 Network.Users[12] packetsReceivedStat:vector ETV
attr "" ""
attr recordingmode vector
attr source packetsReceived
attr title "Packets received per timeslot"
vector 29 Network.Users[12] throughputStat:vector ETV
attr "" ""
attr recordingmode vector
attr source throughput
attr title Throughput
vector 30 Network.Users[13] packetsReceivedStat:vector ETV
attr "" ""
attr recordingmode vector
attr source packetsReceived
attr title "Packets received per timeslot"
vector 31 Network.Users[13] throughputStat:vector ETV
attr "" ""
attr recordingmode vector
attr source throughput
attr title Throughput
vector 32 Network.Users[14] packetsReceivedStat:vector ETV
attr "" ""
attr recordingmode vector
attr source packetsReceived
attr title "Packets received per timeslot"
vector 33 Network.Users[14] throughputStat:vector ETV
attr "" ""
attr recordingmode vector
attr source throughput
attr title Throughput
vector 34 Network.Users[15] packetDelayStat:vector ETV
attr "" ""
attr recordingmode vector
attr source packetDelay
attr title "Packet delay"
vector 35 Network.Users[15] packetsReceivedStat:vector ETV
attr "" ""
attr recordingmode vector
attr source packetsReceived
attr title "Packets received per timeslot"
vector 36 Network.Users[15] throughputStat:vector ETV
attr "" ""
attr recordingmode vector
attr source throughput
attr title Throughput
vector 37 Network.Users[16] packetDelayStat:vector ETV
attr "" ""
attr recordingmode vector
attr source packetDelay
attr title "Packet delay"
vector 38 Network.Users[16] packetsReceivedStat:vector ETV
attr "" ""
attr recordingmode vector
attr source packetsReceived
attr title "Packets received per timeslot"
vector 39 Network.Users[16] throughputStat:vector ETV
attr "" ""
attr recordingmode vector
attr source throughput
attr title Throughput
vector 40 Network.Users[17] packetsReceivedStat:vector ETV
attr "" ""
attr recordingmode vector
attr source packetsReceived
attr title "Packets received per timeslot"
vector 41 Network.Users[17] throughputStat:vector ETV
attr "" ""
attr recordingmode vector
attr source throughput
attr title Throughput
vector 42 Network.Users[18] packetsReceivedStat:vector ETV
attr "" ""
attr recordingmode vector
attr source packetsReceived
attr title "Packets received per timeslot"
vector 43 Network.Users[18] throughputStat:vector ETV
attr "" ""
attr recordingmode vector
attr source throughput
attr title Throughput
vector 44 Network.Users[19] packetsReceivedStat:vector ETV
attr "" ""
attr recordingmode vector
attr source packetsReceived
attr title "Packets received per timeslot"
vector 45 Network.Users[19] throughputStat:vector ETV
attr "" ""
attr recordingmode vector
attr source throughput
attr title Throughput
vector 46 Network.Users[20] packetsReceivedStat:vector ETV
attr "" ""
attr recordingmode vector
attr source packetsReceived
attr title "Packets received per timeslot"
vector 47 Network.Users[20] throughputStat:vector ETV
attr "" ""
attr recordingmode vector
attr source throughput
attr title Throughput
vector 48 Network.Users[21] packetDelayStat:vector ETV
attr "" ""
attr recordingmode vector
attr source packetDelay
attr title "Packet delay"
vector 49 Network.Users[21] packetsReceivedStat:vector ETV
attr "" ""
attr recordingmode vector
attr source packetsReceived
attr title "Packets received per timeslot"
vector 50 Network.Users[21] throughputStat:vector ETV
attr "" ""
attr recordingmode vector
attr source throughput
attr title Throughput
vector 51 Network.Users[22] packetDelayStat:vector ETV
attr "" ""
attr recordingmode vector
attr source packetDelay
attr title "Packet delay"
vector 52 Network.Users[22] packetsReceivedStat:vector ETV
attr "" ""
attr recordingmode vector
attr source packetsReceived
attr title "Packets received per timeslot"
vector 53 Network.Users[22] throughputStat:vector ETV
attr "" ""
attr recordingmode vector
attr source throughput
attr title Throughput
vector 54 Network.Users[23] packetsReceivedStat:vector ETV
attr "" ""
attr recordingmode vector
attr source packetsReceived
attr title "Packets received per timeslot"
vector 55 Network.Users[23] throughputStat:vector ETV
attr "" ""
attr recordingmode vector
attr source throughput
attr title Throughput
vector 56 Network.Users[24] packetDelayStat:vector ETV
attr "" ""
attr recordingmode vector
attr source packetDelay
attr title "Packet delay"
vector 57 Network.Users[24] packetsReceivedStat:vector ETV
attr "" ""
attr recordingmode vector
attr source packetsReceived
attr title "Packets received per timeslot"
vector 58 Network.Users[24] throughputStat:vector ETV
attr "" ""
attr recordingmode vector
attr source throughput
attr title Throughput
vector 59 Network.Users[4] packetDelayStat:vector ETV
attr "" ""
attr recordingmode vector
attr source packetDelay
attr title "Packet delay"
vector 60 Network.Users[8] packetDelayStat:vector ETV
attr "" ""
attr recordingmode vector
attr source packetDelay
attr title "Packet delay"
vector 61 Network.Users[10] packetDelayStat:vector ETV
attr "" ""
attr recordingmode vector
attr source packetDelay
attr title "Packet delay"
vector 62 Network.Users[14] packetDelayStat:vector ETV
attr "" ""
attr recordingmode vector
attr source packetDelay
attr title "Packet delay"
vector 63 Network.Users[18] packetDelayStat:vector ETV
attr "" ""
attr recordingmode vector
attr source packetDelay
attr title "Packet delay"
vector 64 Network.Users[19] packetDelayStat:vector ETV
attr "" ""
attr recordingmode vector
attr source packetDelay
attr title "Packet delay"
vector 65 Network.Users[0] packetDelayStat:vector ETV
attr "" ""
attr recordingmode vector
attr source packetDelay
attr title "Packet delay"
vector 66 Network.Users[13] packetDelayStat:vector ETV
attr "" ""
attr recordingmode vector
attr source packetDelay
attr title "Packet delay"
vector 67 Network.Users[17] packetDelayStat:vector ETV
attr "" ""
attr recordingmode vector
attr source packetDelay
attr title "Packet delay"
vector 68 Network.Users[1] packetDelayStat:vector ETV
attr "" ""
attr recordingmode vector
attr source packetDelay
attr title "Packet delay"
vector 69 Network.Users[23] packetDelayStat:vector ETV
attr "" ""
attr recordingmode vector
attr source packetDelay
attr title "Packet delay"
vector 70 Network.Users[2] packetDelayStat:vector ETV
attr "" ""
attr recordingmode vector
attr source packetDelay
attr title "Packet delay"
vector 71 Network.Users[11] packetDelayStat:vector ETV
attr "" ""
attr recordingmode vector
attr source packetDelay
attr title "Packet delay"
vector 72 Network.Users[3] packetDelayStat:vector ETV
attr "" ""
attr recordingmode vector
attr source packetDelay
attr title "Packet delay"
vector 73 Network.Users[9] packetDelayStat:vector ETV
attr "" ""
attr recordingmode vector
attr source packetDelay
attr title "Packet delay"
vector 74 Network.Users[20] packetDelayStat:vector ETV
attr "" ""
attr recordingmode vector
attr source packetDelay
attr title "Packet delay"
vector 75 Network.Users[6] packetDelayStat:vector ETV
attr "" ""
attr recordingmode vector
attr source packetDelay
attr title "Packet delay"
0	42	0.1	8
0	109	0.2	8
0	182	0.3	9
0	243	0.4	4
0	314	0.5	8
0	377	0.6	5
0	442	0.7	4
0	521	0.8	12
0	578	0.9	3
0	645	1	7
0	704	1.1	4
0	777	1.2	8
0	846	1.3	8
0	913	1.4	8
0	980	1.5	6
0	1041	1.6	4
0	1102	1.7	5
0	1167	1.8	6
0	1232	1.9	6
0	1295	2	5
0	1358	2.1	6
0	1427	2.2	8
0	1492	2.3	7
0	1565	2.4	7
0	1636	2.5	10
0	1699	2.6	6
0	1758	2.7	4
0	1831	2.8	10
0	1900	2.9	7
0	1957	3	3
0	2032	3.1	10
0	2097	3.2	7
0	2166	3.3	8
0	2231	3.4	7
0	2294	3.5	5
0	2355	3.6	4
0	2416	3.7	5
0	2485	3.8	8
0	2548	3.9	6
0	2619	4	8
0	2676	4.1	3
0	2739	4.2	6
0	2808	4.3	8
0	2869	4.4	5
0	2932	4.5	6
0	2991	4.6	4
0	3068	4.7	12
0	3131	4.8	6
0	3202	4.9	8
0	3265	5	6
0	3330	5.1	7
0	3397	5.2	8
0	3458	5.3	3
0	3523	5.4	6
0	3594	5.5	9
0	3663	5.6	7
0	3736	5.7	9
0	3805	5.8	8
0	3874	5.9	8
0	3935	6	5
0	4002	6.1	7
0	4073	6.2	9
0	4132	6.3	4
0	4211	6.4	13
0	4274	6.5	6
0	4345	6.6	8
0	4418	6.7	8
0	4481	6.8	6
0	4548	6.9	7
0	4613	7	6
0	4690	7.1	13
0	4755	7.2	7
0	4810	7.3	2
0	4867	7.4	3
0	4934	7.5	6
0	4997	7.6	6
0	5074	7.7	9
0	5137	7.8	5
0	5200	7.9	5
0	5271	8	9
0	5336	8.1	7
0	5401	8.2	6
0	5472	8.3	9
0	5543	8.4	10
0	5610	8.5	7
0	5681	8.6	9
0	5750	8.7	9
0	5817	8.8	7
0	5886	8.9	8
0	5955	9	6
0	6020	9.1	7
0	6089	9.2	9
0	6152	9.3	6
0	6217	9.4	7
0	6288	9.5	9
0	6355	9.6	7
0	6416	9.7	5
0	6485	9.8	9
0	6554	9.9	8
0	6611	10	3
0	6676	10.1	7
0	6747	10.2	9
0	6806	10.3	4
0	6883	10.4	11
0	6956	10.5	11
0	7021	10.6	7
0	7084	10.7	6
0	7161	10.8	9
0	7226	10.9	7
0	7293	11	8
0	7358	11.1	6
0	7431	11.2	10
0	7488	11.3	3
0	7555	11.4	8
0	7622	11.5	6
0	7685	11.6	6
0	7740	11.7	2
0	7803	11.8	4
0	7866	11.9	6
0	7933	12	6
0	7996	12.1	5
0	8065	12.2	7
0	8128	12.3	6
0	8197	12.4	8
0	8264	12.5	7
0	8331	12.6	7
0	8400	12.7	8
0	8471	12.8	9
0	8542	12.9	8
0	8611	13	8
0	8676	13.1	6
0	8743	13.2	8
0	8806	13.3	5
0	8871	13.4	7
0	8940	13.5	8
0	9011	13.6	8
0	9080	13.7	9
0	9157	13.8	10
0	9218	13.9	5
0	9287	14	8
0	9370	14.1	11
0	9437	14.2	8
0	9496	14.3	4
0	9555	14.4	3
0	9618	14.5	5
0	9685	14.6	8
0	9746	14.7	5
0	9819	14.8	9
0	9884	14.9	6
0	9959	15	11
0	10024	15.1	6
0	10089	15.2	6
0	10148	15.3	4
0	10221	15.4	10
0	10286	15.5	6
0	10347	15.6	5
0	10410	15.7	6
0	10477	15.8	7
0	10542	15.9	7
0	10609	16	6
0	10680	16.1	9
0	10739	16.2	4
0	10800	16.3	5
0	10867	16.4	7
0	10938	16.5	9
0	11009	16.6	9
0	11082	16.7	9
0	11151	16.8	9
0	11222	16.9	10
0	11293	17	8
0	11360	17.1	8
0	11431	17.2	10
0	11496	17.3	6
0	11553	17.4	3
0	11614	17.5	5
0	11691	17.6	11
0	11758	17.7	6
0	11823	17.8	6
0	11892	17.9	9
0	11955	18	6
0	12022	18.1	8
0	12081	18.2	4
0	12144	18.3	6
0	12213	18.4	8
0	12280	18.5	8
0	12337	18.6	3
0	12404	18.7	7
0	12463	18.8	4
0	12536	18.9	8
0	12605	19	7
0	12664	19.1	4
0	12731	19.2	8
0	12804	19.3	8
0	12873	19.4	7
0	12942	19.5	9
0	13003	19.6	4
0	13064	19.7	5
0	13133	19.8	6
0	13192	19.9	3
0	13263	20	8
0	13322	20.1	4
0	13395	20.2	10
0	13464	20.3	7
0	13523	20.4	4
0	13590	20.5	8
0	13655	20.6	7
0	13720	20.7	6
0	13787	20.8	7
0	13854	20.9	8
0	13923	21	8
0	13984	21.1	5
0	14055	21.2	7
0	14112	21.3	3
0	14193	21.4	11
0	14258	21.5	7
0	14315	21.6	2
0	14382	21.7	7
0	14441	21.8	4
0	14502	21.9	4
0	14563	22	4
0	14632	22.1	8
0	14695	22.2	6
0	14762	22.3	8
0	14825	22.4	5
0	14886	22.5	4
0	14955	22.6	9
0	15032	22.7	9
0	15099	22.8	8
0	15166	22.9	7
0	15235	23	9
0	15314	23.1	11
0	15377	23.2	5
0	15440	23.3	6
0	15519	23.4	10
0	15584	23.5	7
0	15649	23.6	7
0	15706	23.7	3
0	15769	23.8	6
0	15834	23.9	6
0	15901	24	8
0	15964	24.1	5
0	16035	24.2	9
0	16100	24.3	6
0	16161	24.4	5
0	16224	24.5	6
0	16293	24.6	9
0	16356	24.7	4
0	16423	24.8	8
0	16486	24.9	6
0	16553	25	7
0	16618	25.1	7
0	16679	25.2	4
0	16746	25.3	8
0	16817	25.4	9
0	16878	25.5	4
0	16945	25.6	8
0	17014	25.7	9
0	17085	25.8	9
0	17168	25.9	15
0	17245	26	12
0	17306	26.1	4
0	17373	26.2	7
0	17436	26.3	5
0	17499	26.4	6
0	17566	26.5	7
0	17635	26.6	9
0	17694	26.7	4
0	17763	26.8	8
0	17830	26.9	7
0	17895	27	7
0	17956	27.1	5
0	18039	27.2	14
0	18106	27.3	7
0	18171	27.4	7
0	18234	27.5	6
0	18305	27.6	7
0	18372	27.7	7
0	18439	27.8	8
0	18502	27.9	6
0	18573	28	8
0	18640	28.1	6
0	18707	28.2	6
0	18768	28.3	5
0	18833	28.4	7
0	18898	28.5	7
0	18959	28.6	5
0	19022	28.7	6
0	19095	28.8	11
0	19150	28.9	2
0	19217	29	7
0	19274	29.1	3
0	19341	29.2	8
0	19412	29.3	10
0	19483	29.4	9
0	19556	29.5	11
0	19625	29.6	8
0	19684	29.7	4
0	19757	29.8	11
0	19826	29.9	8
0	19895	30	9
0	19956	30.1	5
0	20019	30.2	6
0	20080	30.3	5
0	20137	30.4	3
0	20202	30.5	7
0	20263	30.6	5
0	20328	30.7	7
0	20405	30.8	12
0	20468	30.9	6
0	20531	31	6
0	20590	31.1	4
0	20667	31.2	11
0	20732	31.3	7
0	20793	31.4	5
0	20868	31.5	11
0	20939	31.6	9
0	21006	31.7	8
0	21077	31.8	8
0	21144	31.9	8
0	21203	32	3
0	21274	32.1	9
0	21347	32.2	10
0	21404	32.3	3
0	21465	32.4	4
0	21528	32.5	4
0	21601	32.6	10
0	21664	32.7	5
0	21729	32.8	7
0	21794	32.9	7
0	21861	33	8
0	21918	33.1	3
0	21973	33.2	2
0	22034	33.3	5
0	22099	33.4	7
0	22168	33.5	8
0	22235	33.6	7
0	22292	33.7	2
0	22357	33.8	7
0	22418	33.9	5
0	22489	34	8
0	22552	34.1	6
0	22617	34.2	7
0	22684	34.3	7
0	22751	34.4	7
0	22822	34.5	6
0	22885	34.6	6
0	22948	34.7	6
0	23023	34.8	10
0	23088	34.9	6
0	23159	35	9
0	23224	35.1	7
0	23289	35.2	7
0	23352	35.3	6
0	23415	35.4	6
0	23478	35.5	6
0	23551	35.6	10
0	23622	35.7	9
0	23689	35.8	8
0	23764	35.9	12
0	23821	36	3
0	23880	36.1	4
0	23957	36.2	10
0	24016	36.3	4
0	24083	36.4	8
0	24154	36.5	10
0	24213	36.6	4
0	24276	36.7	6
0	24347	36.8	8
0	24416	36.9	9
0	24485	37	9
0	24556	37.1	10
0	24621	37.2	6
0	24686	37.3	7
0	24745	37.4	4
0	24810	37.5	6
0	24871	37.6	4
0	24934	37.7	6
0	24993	37.8	4
0	25058	37.9	5
0	25119	38	5
0	25190	38.1	8
0	25251	38.2	4
0	25316	38.3	6
0	25383	38.4	7
0	25458	38.5	10
0	25527	38.6	8
0	25598	38.7	8
0	25657	38.8	4
0	25724	38.9	6
0	25793	39	8
0	25856	39.1	5
0	25927	39.2	8
0	25988	39.3	5
0	26051	39.4	4
0	26108	39.5	2
0	26185	39.6	11
0	26258	39.7	11
0	26329	39.8	10
0	26394	39.9	7
0	26463	40	8
0	26528	40.1	6
0	26587	40.2	4
0	26652	40.3	7
0	26721	40.4	8
0	26790	40.5	7
0	26855	40.6	6
0	26932	40.7	11
0	26985	40.8	1
0	27048	40.9	6
0	27105	41	3
0	27172	41.1	8
0	27243	41.2	10
0	27308	41.3	7
0	27377	41.4	8
0	27438	41.5	5
0	27499	41.6	4
0	27564	41.7	6
0	27631	41.8	7
0	27694	41.9	4
0	27765	42	8
0	27832	42.1	6
0	27893	42.2	5
0	27968	42.3	11
0	28037	42.4	8
0	28100	42.5	5
0	28169	42.6	7
0	28234	42.7	6
0	28299	42.8	7
0	28366	42.9	5
0	28431	43	6
0	28492	43.1	5
0	28569	43.2	10
0	28634	43.3	6
0	28707	43.4	9
0	28776	43.5	7
0	28845	43.6	8
0	28912	43.7	7
0	28985	43.8	10
0	29052	43.9	6
0	29115	44	6
0	29176	44.1	5
0	29259	44.2	12
0	29326	44.3	6
0	29389	44.4	6
0	29456	44.5	7
0	29531	44.6	11
0	29598	44.7	8
0	29659	44.8	5
0	29722	44.9	6
0	29787	45	6
0	29856	45.1	8
0	29927	45.2	8
0	29992	45.3	6
0	30059	45.4	8
0	30132	45.5	9
0	30197	45.6	7
0	30260	45.7	5
0	30319	45.8	4
0	30382	45.9	6
0	30453	46	7
0	30512	46.1	4
0	30581	46.2	7
0	30642	46.3	5
0	30723	46.4	11
0	30788	46.5	6
0	30849	46.6	5
0	30910	46.7	5
0	30973	46.8	6
0	31038	46.9	6
0	31101	47	6
0	31164	47.1	5
0	31223	47.2	4
0	31290	47.3	7
0	31349	47.4	3
0	31412	47.5	6
0	31479	47.6	7
0	31534	47.7	2
0	31595	47.8	5
0	31674	47.9	12
0	31739	48	6
0	31796	48.1	3
0	31859	48.2	6
0	31924	48.3	7
0	31991	48.4	8
0	32054	48.5	4
0	32117	48.6	5
0	32180	48.7	5
0	32249	48.8	8
0	32318	48.9	9
0	32377	49	4
0	32444	49.1	7
0	32505	49.2	5
0	32574	49.3	8
0	32637	49.4	5
0	32692	49.5	2
0	32753	49.6	5
0	32820	49.7	8
0	32885	49.8	6
0	32956	49.9	8
0	33023	50	5
0	33086	50.1	6
0	33143	50.2	2
0	33202	50.3	4
0	33257	50.4	2
0	33326	50.5	7
0	33385	50.6	4
0	33452	50.7	8
0	33519	50.8	7
0	33590	50.9	10
0	33655	51	7
0	33722	51.1	8
0	33785	51.2	6
0	33844	51.3	4
0	33907	51.4	6
0	33974	51.5	7
0	34039	51.6	6
0	34098	51.7	3
0	34169	51.8	10
0	34238	51.9	9
0	34305	52	7
0	34378	52.1	9
0	34439	52.2	5
0	34512	52.3	10
0	34577	52.4	6
0	34642	52.5	7
0	34707	52.6	6
0	34778	52.7	9
0	34845	52.8	8
0	34920	52.9	11
0	34979	53	3
0	35050	53.1	9
0	35119	53.2	8
0	35186	53.3	8
0	35249	53.4	6
0	35314	53.5	7
0	35379	53.6	7
0	35450	53.7	10
0	35517	53.8	7
0	35580	53.9	5
0	35647	54	8
0	35714	54.1	8
0	35791	54.2	12
0	35850	54.3	4
0	35919	54.4	7
0	35980	54.5	5
0	36055	54.6	9
0	36114	54.7	2
0	36171	54.8	3
0	36234	54.9	6
0	36301	55	7
0	36364	55.1	6
0	36431	55.2	8
0	36498	55.3	8
0	36553	55.4	2
0	36626	55.5	9
0	36695	55.6	8
0	36762	55.7	7
0	36821	55.8	4
0	36888	55.9	7
0	36947	56	4
0	37022	56.1	11
0	37091	56.2	9
0	37154	56.3	6
0	37211	56.4	3
0	37288	56.5	10
0	37361	56.6	10
0	37420	56.7	4
0	37485	56.8	6
0	37554	56.9	9
0	37627	57	9
0	37690	57.1	6
0	37763	57.2	9
0	37826	57.3	6
0	37903	57.4	11
0	37970	57.5	5
0	38041	57.6	9
0	38106	57.7	7
0	38175	57.8	8
0	38246	57.9	10
0	38311	58	7
0	38370	58.1	4
0	38441	58.2	9
0	38514	58.3	10
0	38579	58.4	5
0	38638	58.5	4
0	38691	58.6	1
0	38756	58.7	6
0	38819	58.8	5
0	38884	58.9	6
0	38955	59	9
0	39030	59.1	11
0	39091	59.2	4
0	39154	59.3	6
0	39233	59.4	12
0	39312	59.5	11
0	39375	59.6	6
0	39444	59.7	7
0	39513	59.8	7
0	39588	59.9	9
0	39651	60	5
0	39714	60.1	6
0	39777	60.2	5
0	39844	60.3	8
0	39911	60.4	8
0	39976	60.5	7
0	40045	60.6	8
0	40110	60.7	5
0	40165	60.8	2
0	40232	60.9	6
0	40297	61	7
0	40370	61.1	11
0	40433	61.2	5
0	40502	61.3	9
0	40563	61.4	5
0	40626	61.5	6
0	40687	61.6	5
0	40744	61.7	3
0	40815	61.8	8
0	40880	61.9	7
0	40945	62	6
0	41004	62.1	4
0	41063	62.2	4
0	41122	62.3	3
0	41183	62.4	5
0	41250	62.5	8
0	41311	62.6	5
0	41374	62.7	5
0	41429	62.8	2
0	41496	62.9	7
0	41559	63	5
0	41628	63.1	8
0	41695	63.2	8
0	41760	63.3	7
0	41827	63.4	8
0	41892	63.5	6
0	41957	63.6	7
0	42022	63.7	6
0	42087	63.8	6
0	42160	63.9	9
0	42221	64	5
0	42292	64.1	8
0	42353	64.2	5
0	42408	64.3	2
0	42471	64.4	6
0	42538	64.5	7
0	42611	64.6	11
0	42678	64.7	8
0	42739	64.8	4
0	42802	64.9	4
0	42875	65	8
0	42942	65.1	8
0	43005	65.2	6
0	43070	65.3	5
0	43131	65.4	3
0	43198	65.5	6
0	43263	65.6	7
0	43332	65.7	8
0	43389	65.8	3
0	43452	65.9	4
0	43515	66	6
0	43584	66.1	9
0	43653	66.2	8
0	43720	66.3	8
0	43783	66.4	6
0	43852	66.5	9
0	43919	66.6	8
0	43982	66.7	6
0	44039	66.8	3
0	44108	66.9	7
0	44169	67	5
0	44250	67.1	14
0	44319	67.2	9
0	44382	67.3	6
0	44447	67.4	7
0	44504	67.5	3
0	44567	67.6	6
0	44634	67.7	7
0	44699	67.8	7
0	44760	67.9	5
0	44823	68	6
0	44882	68.1	3
0	44945	68.2	6
0	45026	68.3	11
0	45091	68.4	6
0	45162	68.5	9
0	45225	68.6	6
0	45292	68.7	7
0	45359	68.8	7
0	45420	68.9	5
0	45493	69	9
0	45550	69.1	2
0	45625	69.2	11
0	45682	69.3	3
0	45735	69.4	1
0	45802	69.5	8
0	45869	69.6	7
0	45932	69.7	6
0	46007	69.8	9
0	46074	69.9	6
0	46139	70	6
0	46198	70.1	4
0	46257	70.2	4
0	46330	70.3	8
0	46405	70.4	11
0	46462	70.5	3
0	46527	70.6	7
0	46586	70.7	4
0	46661	70.8	12
0	46736	70.9	9
0	46805	71	9
0	46866	71.1	5
0	46929	71.2	6
0	47002	71.3	10
0	47071	71.4	9
0	47134	71.5	6
0	47201	71.6	7
0	47266	71.7	6
0	47327	71.8	5
0	47394	71.9	7
0	47463	72	9
0	47532	72.1	7
0	47601	72.2	9
0	47672	72.3	9
0	47747	72.4	11
0	47812	72.5	7
0	47877	72.6	6
0	47934	72.7	3
0	48013	72.8	13
0	48074	72.9	5
0	48139	73	7
0	48214	73.1	10
0	48281	73.2	6
0	48360	73.3	11
0	48431	73.4	8
0	48490	73.5	4
0	48561	73.6	9
0	48628	73.7	8
0	48691	73.8	6
0	48756	73.9	6
0	48823	74	7
0	48890	74.1	8
0	48949	74.2	3
0	49008	74.3	4
0	49081	74.4	10
0	49148	74.5	7
0	49221	74.6	9
0	49290	74.7	9
0	49349	74.8	4
0	49418	74.9	9
0	49489	75	8
0	49570	75.1	11
0	49635	75.2	7
0	49714	75.3	12
0	49773	75.4	4
0	49840	75.5	7
0	49905	75.6	5
0	49970	75.7	7
0	50039	75.8	7
0	50106	75.9	8
0	50179	76	8
0	50242	76.1	6
0	50311	76.2	7
0	50374	76.3	5
0	50435	76.4	5
0	50500	76.5	7
0	50575	76.6	9
0	50650	76.7	10
0	50725	76.8	12
0	50794	76.9	9
0	50857	77	6
0	50924	77.1	8
0	50993	77.2	7
0	51058	77.3	7
0	51117	77.4	4
0	51182	77.5	6
0	51255	77.6	10
0	51326	77.7	9
0	51405	77.8	11
0	51482	77.9	11
0	51547	78	6
0	51614	78.1	8
0	51693	78.2	12
0	51756	78.3	5
0	51813	78.4	3
0	51884	78.5	10
0	51947	78.6	6
0	52020	78.7	10
0	52079	78.8	4
0	52148	78.9	7
0	52217	79	8
0	52282	79.1	6
0	52351	79.2	6
0	52418	79.3	7
0	52481	79.4	5
0	52550	79.5	9
0	52615	79.6	7
0	52684	79.7	9
0	52751	79.8	8
0	52812	79.9	5
0	52881	80	8
0	52946	80.1	6
0	53011	80.2	7
0	53072	80.3	5
0	53139	80.4	7
0	53206	80.5	7
0	53277	80.6	10
0	53340	80.7	6
0	53405	80.8	6
0	53466	80.9	5
0	53533	81	8
0	53590	81.1	3
0	53651	81.2	5
0	53724	81.3	10
0	53801	81.4	12
0	53858	81.5	3
0	53921	81.6	6
0	53986	81.7	6
0	54049	81.8	6
0	54116	81.9	7
0	54181	82	5
0	54250	82.1	9
0	54315	82.2	7
0	54384	82.3	7
0	54455	82.4	6
0	54510	82.5	2
0	54567	82.6	3
0	54634	82.7	8
0	54693	82.8	4
0	54760	82.9	8
0	54825	83	7
0	54888	83.1	5
0	54955	83.2	8
0	55014	83.3	3
0	55081	83.4	8
0	55148	83.5	8
0	55219	83.6	10
0	55284	83.7	5
0	55349	83.8	7
0	55412	83.9	6
0	55469	84	3
0	55534	84.1	6
0	55605	84.2	9
0	55684	84.3	12
0	55745	84.4	5
0	55814	84.5	8
0	55879	84.6	6
0	55948	84.7	8
0	56019	84.8	8
0	56080	84.9	4
0	56141	85	5
0	56212	85.1	9
0	56281	85.2	7
0	56356	85.3	9
0	56421	85.4	7
0	56482	85.5	5
0	56547	85.6	6
0	56624	85.7	12
0	56689	85.8	7
0	56762	85.9	11
0	56829	86	7
0	56886	86.1	3
0	56951	86.2	7
0	57018	86.3	7
0	57081	86.4	5
0	57144	86.5	5
0	57207	86.6	6
0	57274	86.7	7
0	57341	86.8	7
0	57410	86.9	8
0	57479	87	9
0	57544	87.1	6
0	57613	87.2	9
0	57680	87.3	6
0	57747	87.4	7
0	57818	87.5	9
0	57891	87.6	10
0	57948	87.7	3
0	58023	87.8	12
0	58090	87.9	8
0	58157	88	8
0	58218	88.1	5
0	58283	88.2	7
0	58360	88.3	13
0	58425	88.4	6
0	58490	88.5	7
0	58547	88.6	3
0	58622	88.7	10
0	58681	88.8	2
0	58746	88.9	7
0	58811	89	5
0	58878	89.1	7
0	58953	89.2	10
0	59024	89.3	10
0	59085	89.4	5
0	59156	89.5	10
0	59227	89.6	10
0	59296	89.7	7
0	59363	89.8	8
0	59424	89.9	4
0	59481	90	3
0	59544	90.1	6
0	59611	90.2	8
0	59678	90.3	7
0	59743	90.4	5
0	59802	90.5	4
0	59875	90.6	9
0	59938	90.7	6
0	60003	90.8	6
0	60062	90.9	3
0	60125	91	5
0	60180	91.1	2
0	60245	91.2	7
0	60314	91.3	9
0	60377	91.4	6
0	60436	91.5	4
0	60495	91.6	4
0	60558	91.7	6
0	60619	91.8	4
0	60686	91.9	7
0	60753	92	8
0	60830	92.1	12
0	60889	92.2	4
0	60950	92.3	5
0	61021	92.4	8
0	61080	92.5	3
0	61149	92.6	8
0	61216	92.7	8
0	61283	92.8	8
0	61346	92.9	4
0	61403	93	2
0	61464	93.1	5
0	61535	93.2	8
0	61596	93.3	5
0	61675	93.4	11
0	61730	93.5	2
0	61789	93.6	4
0	61856	93.7	7
0	61921	93.8	7
0	61986	93.9	6
0	62045	94	3
0	62110	94.1	7
0	62179	94.2	9
0	62240	94.3	4
0	62313	94.4	10
0	62372	94.5	3
0	62437	94.6	7
0	62510	94.7	10
0	62581	94.8	9
0	62646	94.9	7
0	62719	95	10
0	62792	95.1	11
0	62855	95.2	5
0	62918	95.3	5
0	62985	95.4	7
0	63050	95.5	6
0	63117	95.6	7
0	63184	95.7	8
0	63255	95.8	10
0	63324	95.9	7
0	63395	96	8
0	63456	96.1	5
0	63523	96.2	8
0	63592	96.3	7
0	63657	96.4	6
0	63736	96.5	12
0	63797	96.6	5
0	63862	96.7	6
0	63931	96.8	8
0	63996	96.9	7
0	64065	97	8
0	64138	97.1	9
0	64205	97.2	7
0	64272	97.3	8
0	64325	97.4	1
0	64396	97.5	9
0	64461	97.6	6
0	64528	97.7	8
0	64593	97.8	7
0	64658	97.9	5
0	64733	98	10
0	64802	98.1	8
0	64871	98.2	7
0	64932	98.3	5
0	65005	98.4	10
0	65070	98.5	6
0	65131	98.6	5
0	65198	98.7	7
0	65261	98.8	5
0	65324	98.9	6
0	65379	99	2
0	65438	99.1	4
0	65503	99.2	6
0	65566	99.3	5
0	65641	99.4	12
0	65706	99.5	7
0	65763	99.6	3
0	65828	99.7	7
0	65897	99.8	8
0	65962	99.9	7
0	66021	100	4
0	66082	100.1	5
0	66159	100.2	11
0	66220	100.3	5
0	66295	100.4	9
0	66358	100.5	6
0	66423	100.6	6
0	66490	100.7	7
0	66555	100.8	7
0	66610	100.9	2
0	66675	101	6
0	66744	101.1	8
0	66815	101.2	9
0	66884	101.3	8
0	66949	101.4	6
0	67010	101.5	4
0	67075	101.6	6
0	67138	101.7	5
0	67213	101.8	11
0	67278	101.9	6
0	67339	102	5
0	67410	102.1	9
0	67469	102.2	4
0	67532	102.3	5
0	67587	102.4	2
0	67640	102.5	1
0	67699	102.6	4
0	67762	102.7	6
0	67833	102.8	9
0	67908	102.9	10
0	67979	103	9
0	68040	103.1	4
0	68107	103.2	7
0	68172	103.3	7
0	68237	103.4	7
0	68304	103.5	7
0	68375	103.6	9
0	68440	103.7	7
0	68503	103.8	6
0	68576	103.9	9
0	68645	104	9
0	68708	104.1	5
0	68767	104.2	4
0	68822	104.3	2
0	68891	104.4	7
0	68954	104.5	6
0	69013	104.6	4
0	69078	104.7	6
0	69131	104.8	1
0	69202	104.9	8
0	69263	105	5
0	69336	105.1	9
0	69393	105.2	2
0	69460	105.3	7
0	69531	105.4	10
0	69596	105.5	7
0	69661	105.6	7
0	69722	105.7	5
0	69783	105.8	4
0	69850	105.9	7
0	69917	106	8
0	69984	106.1	6
0	70053	106.2	9
0	70116	106.3	6
0	70179	106.4	5
0	70244	106.5	7
0	70305	106.6	5
0	70366	106.7	4
0	70431	106.8	7
0	70496	106.9	6
0	70565	107	9
0	70628	107.1	6
0	70689	107.2	5
0	70758	107.3	9
0	70817	107.4	4
0	70882	107.5	7
0	70943	107.6	5
0	71016	107.7	10
0	71075	107.8	4
0	71146	107.9	6
0	71207	108	5
0	71268	108.1	5
0	71333	108.2	7
0	71396	108.3	5
0	71467	108.4	8
0	71524	108.5	3
0	71591	108.6	8
0	71656	108.7	7
0	71735	108.8	13
0	71798	108.9	6
0	71867	109	7
0	71934	109.1	8
0	72007	109.2	9
0	72078	109.3	10
0	72145	109.4	8
0	72208	109.5	5
0	72279	109.6	10
0	72344	109.7	7
0	72409	109.8	5
0	72462	109.9	1
0	72531	110	9
0	72596	110.1	6
0	72655	110.2	4
0	72722	110.3	8
0	72785	110.4	6
0	72846	110.5	5
0	72911	110.6	7
0	72980	110.7	8
0	73045	110.8	6
0	73108	110.9	6
0	73177	111	8
0	73242	111.1	7
0	73299	111.2	3
0	73360	111.3	4
0	73417	111.4	2
0	73498	111.5	12