version 3
run uniformCQI-1-20231214-14:47:13-27792
attr configname uniformCQI
attr datetime 20231214-14:47:13
attr datetimef 20231214-144713
attr experiment uniformCQI
attr inifile omnetpp.ini
attr iterationvars "$simulationTime=70s, $nUser=25, $lambda=25"
attr iterationvarsd simulationTime=70s/nUser=25/lambda=25
attr iterationvarsf simulationTime=70s,nUser=25,lambda=25-
attr measurement "$simulationTime=70s, $nUser=25, $lambda=25"
attr network Network
attr processid 27792
attr repetition 1
attr replication #1
attr resultdir results
attr runnumber 1
attr seedset 1
itervar lambda 25
itervar nUser 25
itervar simulationTime 70s
config **.Users[*].CQIdistribution "\"uniform\""
config network Network
config cpu-time-limit 60s
config sim-time-limit 70s
config num-rngs 600
config repeat 10
config seed-set 1
config **.NUM_USER 25
config **.LAMBDA 25
config **.CQIArrayLength 15
config **.CQIValues "\" 3 3 6 11 15 20 25 36 39 50 63 72 80 93 93 \""
config **.frameSize 25
config **.timeSlot 0.1

vector 0 Network.BS simFrameStat:vector ETV
attr "" ""
attr recordingmode vector
attr source simFrame
attr title "Occupied frame slots"
vector 1 Network.Users[0] packetDelayStat:vector ETV
attr "" ""
attr recordingmode vector
attr source packetDelay
attr title "Packet delay"
vector 2 Network.Users[0] packetsReceivedStat:vector ETV
attr "" ""
attr recordingmode vector
attr source packetsReceived
attr title "Packets received per timeslot"
vector 3 Network.Users[0] throughputStat:vector ETV
attr "" ""
attr recordingmode vector
attr source throughput
attr title Throughput
vector 4 Network.Users[1] packetDelayStat:vector ETV
attr "" ""
attr recordingmode vector
attr source packetDelay
attr title "Packet delay"
vector 5 Network.Users[1] packetsReceivedStat:vector ETV
attr "" ""
attr recordingmode vector
attr source packetsReceived
attr title "Packets received per timeslot"
vector 6 Network.Users[1] throughputStat:vector ETV
attr "" ""
attr recordingmode vector
attr source throughput
attr title Throughput
vector 7 Network.Users[2] packetDelayStat:vector ETV
attr "" ""
attr recordingmode vector
attr source packetDelay
attr title "Packet delay"
vector 8 Network.Users[2] packetsReceivedStat:vector ETV
attr "" ""
attr recordingmode vector
attr source packetsReceived
attr title "Packets received per timeslot"
vector 9 Network.Users[2] throughputStat:vector ETV
attr "" ""
attr recordingmode vector
attr source throughput
attr title Throughput
vector 10 Network.Users[3] packetDelayStat:vector ETV
attr "" ""
attr recordingmode vector
attr source packetDelay
attr title "Packet delay"
vector 11 Network.Users[3] packetsReceivedStat:vector ETV
attr "" ""
attr recordingmode vector
attr source packetsReceived
attr title "Packets received per timeslot"
vector 12 Network.Users[3] throughputStat:vector ETV
attr "" ""
attr recordingmode vector
attr source throughput
attr title Throughput
vector 13 Network.Users[4] packetDelayStat:vector ETV
attr "" ""
attr recordingmode vector
attr source packetDelay
attr title "Packet delay"
vector 14 Network.Users[4] packetsReceivedStat:vector ETV
attr "" ""
attr recordingmode vector
attr source packetsReceived
attr title "Packets received per timeslot"
vector 15 Network.Users[4] throughputStat:vector ETV
attr "" ""
attr recordingmode vector
attr source throughput
attr title Throughput
vector 16 Network.Users[5] packetDelayStat:vector ETV
attr "" ""
attr recordingmode vector
attr source packetDelay
attr title "Packet delay"
vector 17 Network.Users[5] packetsReceivedStat:vector ETV
attr "" ""
attr recordingmode vector
attr source packetsReceived
attr title "Packets received per timeslot"
vector 18 Network.Users[5] throughputStat:vector ETV
attr "" ""
attr recordingmode vector
attr source throughput
attr title Throughput
vector 19 Network.Users[6] packetDelayStat:vector ETV
attr "" ""
attr recordingmode vector
attr source packetDelay
attr title "Packet delay"
vector 20 Network.Users[6] packetsReceivedStat:vector ETV
attr "" ""
attr recordingmode vector
attr source packetsReceived
attr title "Packets received per timeslot"
vector 21 Network.Users[6] throughputStat:vector ETV
attr "" ""
attr recordingmode vector
attr source throughput
attr title Throughput
vector 22 Network.Users[7] packetDelayStat:vector ETV
attr "" ""
attr recordingmode vector
attr source packetDelay
attr title "Packet delay"
vector 23 Network.Users[7] packetsReceivedStat:vector ETV
attr "" ""
attr recordingmode vector
attr source packetsReceived
attr title "Packets received per timeslot"
vector 24 Network.Users[7] throughputStat:vector ETV
attr "" ""
attr recordingmode vector
attr source throughput
attr title Throughput
vector 25 Network.Users[8] packetDelayStat:vector ETV
attr "" ""
attr recordingmode vector
attr source packetDelay
attr title "Packet delay"
vector 26 Network.Users[8] packetsReceivedStat:vector ETV
attr "" ""
attr recordingmode vector
attr source packetsReceived
attr title "Packets received per timeslot"
vector 27 Network.Users[8] throughputStat:vector ETV
attr "" ""
attr recordingmode vector
attr source throughput
attr title Throughput
vector 28 Network.Users[9] packetDelayStat:vector ETV
attr "" ""
attr recordingmode vector
attr source packetDelay
attr title "Packet delay"
vector 29 Network.Users[9] packetsReceivedStat:vector ETV
attr "" ""
attr recordingmode vector
attr source packetsReceived
attr title "Packets received per timeslot"
vector 30 Network.Users[9] throughputStat:vector ETV
attr "" ""
attr recordingmode vector
attr source throughput
attr title Throughput
vector 31 Network.Users[10] packetDelayStat:vector ETV
attr "" ""
attr recordingmode vector
attr source packetDelay
attr title "Packet delay"
vector 32 Network.Users[10] packetsReceivedStat:vector ETV
attr "" ""
attr recordingmode vector
attr source packetsReceived
attr title "Packets received per timeslot"
vector 33 Network.Users[10] throughputStat:vector ETV
attr "" ""
attr recordingmode vector
attr source throughput
attr title Throughput
vector 34 Network.Users[11] packetDelayStat:vector ETV
attr "" ""
attr recordingmode vector
attr source packetDelay
attr title "Packet delay"
vector 35 Network.Users[11] packetsReceivedStat:vector ETV
attr "" ""
attr recordingmode vector
attr source packetsReceived
attr title "Packets received per timeslot"
vector 36 Network.Users[11] throughputStat:vector ETV
attr "" ""
attr recordingmode vector
attr source throughput
attr title Throughput
vector 37 Network.Users[12] packetDelayStat:vector ETV
attr "" ""
attr recordingmode vector
attr source packetDelay
attr title "Packet delay"
vector 38 Network.Users[12] packetsReceivedStat:vector ETV
attr "" ""
attr recordingmode vector
attr source packetsReceived
attr title "Packets received per timeslot"
vector 39 Network.Users[12] throughputStat:vector ETV
attr "" ""
attr recordingmode vector
attr source throughput
attr title Throughput
vector 40 Network.Users[13] packetDelayStat:vector ETV
attr "" ""
attr recordingmode vector
attr source packetDelay
attr title "Packet delay"
vector 41 Network.Users[13] packetsReceivedStat:vector ETV
attr "" ""
attr recordingmode vector
attr source packetsReceived
attr title "Packets received per timeslot"
vector 42 Network.Users[13] throughputStat:vector ETV
attr "" ""
attr recordingmode vector
attr source throughput
attr title Throughput
vector 43 Network.Users[14] packetDelayStat:vector ETV
attr "" ""
attr recordingmode vector
attr source packetDelay
attr title "Packet delay"
vector 44 Network.Users[14] packetsReceivedStat:vector ETV
attr "" ""
attr recordingmode vector
attr source packetsReceived
attr title "Packets received per timeslot"
vector 45 Network.Users[14] throughputStat:vector ETV
attr "" ""
attr recordingmode vector
attr source throughput
attr title Throughput
vector 46 Network.Users[15] packetDelayStat:vector ETV
attr "" ""
attr recordingmode vector
attr source packetDelay
attr title "Packet delay"
vector 47 Network.Users[15] packetsReceivedStat:vector ETV
attr "" ""
attr recordingmode vector
attr source packetsReceived
attr title "Packets received per timeslot"
vector 48 Network.Users[15] throughputStat:vector ETV
attr "" ""
attr recordingmode vector
attr source throughput
attr title Throughput
vector 49 Network.Users[16] packetsReceivedStat:vector ETV
attr "" ""
attr recordingmode vector
attr source packetsReceived
attr title "Packets received per timeslot"
vector 50 Network.Users[16] throughputStat:vector ETV
attr "" ""
attr recordingmode vector
attr source throughput
attr title Throughput
vector 51 Network.Users[17] packetsReceivedStat:vector ETV
attr "" ""
attr recordingmode vector
attr source packetsReceived
attr title "Packets received per timeslot"
vector 52 Network.Users[17] throughputStat:vector ETV
attr "" ""
attr recordingmode vector
attr source throughput
attr title Throughput
vector 53 Network.Users[18] packetsReceivedStat:vector ETV
attr "" ""
attr recordingmode vector
attr source packetsReceived
attr title "Packets received per timeslot"
vector 54 Network.Users[18] throughputStat:vector ETV
attr "" ""
attr recordingmode vector
attr source throughput
attr title Throughput
vector 55 Network.Users[19] packetsReceivedStat:vector ETV
attr "" ""
attr recordingmode vector
attr source packetsReceived
attr title "Packets received per timeslot"
vector 56 Network.Users[19] throughputStat:vector ETV
attr "" ""
attr recordingmode vector
attr source throughput
attr title Throughput
vector 57 Network.Users[20] packetsReceivedStat:vector ETV
attr "" ""
attr recordingmode vector
attr source packetsReceived
attr title "Packets received per timeslot"
vector 58 Network.Users[20] throughputStat:vector ETV
attr "" ""
attr recordingmode vector
attr source throughput
attr title Throughput
vector 59 Network.Users[21] packetsReceivedStat:vector ETV
attr "" ""
attr recordingmode vector
attr source packetsReceived
attr title "Packets received per timeslot"
vector 60 Network.Users[21] throughputStat:vector ETV
attr "" ""
attr recordingmode vector
attr source throughput
attr title Throughput
vector 61 Network.Users[22] packetsReceivedStat:vector ETV
attr "" ""
attr recordingmode vector
attr source packetsReceived
attr title "Packets received per timeslot"
vector 62 Network.Users[22] throughputStat:vector ETV
attr "" ""
attr recordingmode vector
attr source throughput
attr title Throughput
vector 63 Network.Users[23] packetsReceivedStat:vector ETV
attr "" ""
attr recordingmode vector
attr source packetsReceived
attr title "Packets received per timeslot"
vector 64 Network.Users[23] throughputStat:vector ETV
attr "" ""
attr recordingmode vector
attr source throughput
attr title Throughput
vector 65 Network.Users[24] packetsReceivedStat:vector ETV
attr "" ""
attr recordingmode vector
attr source packetsReceived
attr title "Packets received per timeslot"
vector 66 Network.Users[24] throughputStat:vector ETV
attr "" ""
attr recordingmode vector
attr source throughput
attr title Throughput
vector 67 Network.Users[16] packetDelayStat:vector ETV
attr "" ""
attr recordingmode vector
attr source packetDelay
attr title "Packet delay"
vector 68 Network.Users[17] packetDelayStat:vector ETV
attr "" ""
attr recordingmode vector
attr source packetDelay
attr title "Packet delay"
vector 69 Network.Users[18] packetDelayStat:vector ETV
attr "" ""
attr recordingmode vector
attr source packetDelay
attr title "Packet delay"
vector 70 Network.Users[19] packetDelayStat:vector ETV
attr "" ""
attr recordingmode vector
attr source packetDelay
attr title "Packet delay"
vector 71 Network.Users[20] packetDelayStat:vector ETV
attr "" ""
attr recordingmode vector
attr source packetDelay
attr title "Packet delay"
vector 72 Network.Users[21] packetDelayStat:vector ETV
attr "" ""
attr recordingmode vector
attr source packetDelay
attr title "Packet delay"
vector 73 Network.Users[22] packetDelayStat:vector ETV
attr "" ""
attr recordingmode vector
attr source packetDelay
attr title "Packet delay"
vector 74 Network.Users[23] packetDelayStat:vector ETV
attr "" ""
attr recordingmode vector
attr source packetDelay
attr title "Packet delay"
vector 75 Network.Users[24] packetDelayStat:vector ETV
attr "" ""
attr recordingmode vector
attr source packetDelay
attr title "Packet delay"
0	176	0.1	25
0	355	0.2	25
0	518	0.3	25
0	723	0.4	25
0	918	0.5	25
0	1085	0.6	25
0	1246	0.7	25
0	1411	0.8	25
0	1608	0.9	25
0	1795	1	25
0	1950	1.1	25
0	2119	1.2	25
0	2300	1.3	25
0	2475	1.4	25
0	2662	1.5	25
0	2831	1.6	25
0	2986	1.7	25
0	3151	1.8	25
0	3346	1.9	25
0	3505	2	25
0	3682	2.1	25
0	3839	2.2	25
0	4006	2.3	25
0	4185	2.4	25
0	4346	2.5	25
0	4511	2.6	25
0	4676	2.7	25
0	4887	2.8	25
0	5072	2.9	25
0	5273	3	25
0	5466	3.1	25
0	5649	3.2	25
0	5802	3.3	25
0	6017	3.4	25
0	6200	3.5	25
0	6385	3.6	25
0	6554	3.7	25
0	6727	3.8	25
0	6892	3.9	25
0	7067	4	25
0	7218	4.1	25
0	7373	4.2	25
0	7538	4.3	25
0	7731	4.4	25
0	7906	4.5	25
0	8073	4.6	25
0	8252	4.7	25
0	8409	4.8	25
0	8574	4.9	25
0	8735	5	25
0	8932	5.1	25
0	9135	5.2	25
0	9326	5.3	25
0	9511	5.4	25
0	9676	5.5	25
0	9825	5.6	25
0	10006	5.7	25
0	10161	5.8	25
0	10342	5.9	25
0	10521	6	25
0	10730	6.1	25
0	10911	6.2	25
0	11092	6.3	25
0	11257	6.4	25
0	11432	6.5	25
0	11599	6.6	25
0	11784	6.7	25
0	11931	6.8	25
0	12118	6.9	25
0	12295	7	25
0	12434	7.1	25
0	12621	7.2	25
0	12806	7.3	25
0	12981	7.4	25
0	13166	7.5	25
0	13331	7.6	25
0	13492	7.7	25
0	13701	7.8	25
0	13870	7.9	25
0	14017	8	25
0	14216	8.1	25
0	14375	8.2	25
0	14532	8.3	25
0	14729	8.4	25
0	14892	8.5	25
0	15067	8.6	25
0	15218	8.7	25
0	15367	8.8	25
0	15518	8.9	25
0	15685	9	25
0	15874	9.1	25
0	16033	9.2	25
0	16190	9.3	25
0	16341	9.4	25
0	16542	9.5	25
0	16697	9.6	25
0	16856	9.7	25
0	17021	9.8	25
0	17186	9.9	25
0	17359	10	25
0	17522	10.1	25
0	17721	10.2	25
0	17852	10.3	25
0	18035	10.4	25
0	18202	10.5	25
0	18371	10.6	25
0	18532	10.7	25
0	18699	10.8	25
0	18882	10.9	25
0	19093	11	25
0	19262	11.1	25
0	19425	11.2	25
0	19594	11.3	25
0	19757	11.4	25
0	19948	11.5	25
0	20119	11.6	25
0	20308	11.7	25
0	20465	11.8	25
0	20632	11.9	25
0	20791	12	25
0	20970	12.1	25
0	21169	12.2	25
0	21384	12.3	25
0	21565	12.4	25
0	21762	12.5	25
0	21917	12.6	25
0	22118	12.7	25
0	22273	12.8	25
0	22446	12.9	25
0	22635	13	25
0	22784	13.1	25
0	22937	13.2	25
0	23142	13.3	25
0	23329	13.4	25
0	23532	13.5	25
0	23717	13.6	25
0	23896	13.7	25
0	24059	13.8	25
0	24228	13.9	25
0	24409	14	25
0	24600	14.1	25
0	24781	14.2	25
0	24968	14.3	25
0	25145	14.4	25
0	25324	14.5	25
0	25535	14.6	25
0	25706	14.7	25
0	25871	14.8	25
0	26036	14.9	25
0	26215	15	25
0	26376	15.1	25
0	26555	15.2	25
0	26742	15.3	25
0	26901	15.4	25
0	27068	15.5	25
0	27225	15.6	25
0	27392	15.7	25
0	27567	15.8	25
0	27722	15.9	25
0	27891	16	25
0	28042	16.1	25
0	28211	16.2	25
0	28370	16.3	25
0	28535	16.4	25
0	28716	16.5	25
0	28913	16.6	25
0	29082	16.7	25
0	29259	16.8	25
0	29456	16.9	25
0	29651	17	25
0	29840	17.1	25
0	30039	17.2	25
0	30198	17.3	25
0	30367	17.4	25
0	30556	17.5	25
0	30725	17.6	25
0	30890	17.7	25
0	31069	17.8	25
0	31228	17.9	25
0	31393	18	25
0	31554	18.1	25
0	31727	18.2	25
0	31908	18.3	25
0	32075	18.4	25
0	32270	18.5	25
0	32437	18.6	25
0	32620	18.7	25
0	32775	18.8	25
0	32950	18.9	25
0	33123	19	25
0	33308	19.1	25
0	33477	19.2	25
0	33648	19.3	25
0	33829	19.4	25
0	33988	19.5	25
0	34149	19.6	25
0	34346	19.7	25
0	34519	19.8	25
0	34720	19.9	25
0	34909	20	25
0	35096	20.1	25
0	35267	20.2	25
0	35438	20.3	25
0	35627	20.4	25
0	35784	20.5	25
0	35949	20.6	25
0	36106	20.7	25
0	36257	20.8	25
0	36424	20.9	25
0	36585	21	25
0	36766	21.1	25
0	36923	21.2	25
0	37078	21.3	25
0	37255	21.4	25
0	37402	21.5	25
0	37551	21.6	25
0	37710	21.7	25
0	37887	21.8	25
0	38062	21.9	25
0	38245	22	25
0	38394	22.1	25
0	38583	22.2	25
0	38760	22.3	25
0	38923	22.4	25
0	39110	22.5	25
0	39299	22.6	25
0	39460	22.7	25
0	39661	22.8	25
0	39814	22.9	25
0	40005	23	25
0	40162	23.1	25
0	40333	23.2	25
0	40524	23.3	25
0	40717	23.4	25
0	40866	23.5	25
0	41019	23.6	25
0	41182	23.7	25
0	41387	23.8	25
0	41570	23.9	25
0	41743	24	25
0	41904	24.1	25
0	42109	24.2	25
0	42274	24.3	25
0	42437	24.4	25
0	42650	24.5	25
0	42827	24.6	25
0	43002	24.7	25
0	43165	24.8	25
0	43350	24.9	25
0	43507	25	25
0	43652	25.1	25
0	43837	25.2	25
0	43980	25.3	25
0	44151	25.4	25
0	44298	25.5	25
0	44497	25.6	25
0	44664	25.7	25
0	44845	25.8	25
0	45002	25.9	25
0	45155	26	25
0	45326	26.1	25
0	45487	26.2	25
0	45674	26.3	25
0	45829	26.4	25
0	46022	26.5	25
0	46191	26.6	25
0	46370	26.7	25
0	46557	26.8	25
0	46722	26.9	25
0	46883	27	25
0	47054	27.1	25
0	47211	27.2	25
0	47402	27.3	25
0	47567	27.4	25
0	47744	27.5	25
0	47903	27.6	25
0	48082	27.7	25
0	48257	27.8	25
0	48398	27.9	25
0	48571	28	25
0	48754	28.1	25
0	48917	28.2	25
0	49082	28.3	25
0	49239	28.4	25
0	49426	28.5	25
0	49637	28.6	25
0	49816	28.7	25
0	49979	28.8	25
0	50168	28.9	25
0	50337	29	25
0	50504	29.1	25
0	50673	29.2	25
0	50864	29.3	25
0	51053	29.4	25
0	51230	29.5	25
0	51411	29.6	25
0	51612	29.7	25
0	51773	29.8	25
0	51936	29.9	25
0	52117	30	25
0	52340	30.1	25
0	52517	30.2	25
0	52738	30.3	25
0	52929	30.4	25
0	53116	30.5	25
0	53277	30.6	25
0	53460	30.7	25
0	53633	30.8	25
0	53806	30.9	25
0	53985	31	25
0	54136	31.1	25
0	54291	31.2	25
0	54454	31.3	25
0	54639	31.4	25
0	54814	31.5	25
0	54989	31.6	25
0	55138	31.7	25
0	55301	31.8	25
0	55494	31.9	25
0	55645	32	25
0	55850	32.1	25
0	56005	32.2	25
0	56178	32.3	25
0	56375	32.4	25
0	56540	32.5	25
0	56719	32.6	25
0	56902	32.7	25
0	57089	32.8	25
0	57238	32.9	25
0	57425	33	25
0	57590	33.1	25
0	57781	33.2	25
0	57942	33.3	25
0	58113	33.4	25
0	58308	33.5	25
0	58487	33.6	25
0	58662	33.7	25
0	58829	33.8	25
0	58990	33.9	25
0	59187	34	25
0	59376	34.1	25
0	59559	34.2	25
0	59728	34.3	25
0	59909	34.4	25
0	60094	34.5	25
0	60281	34.6	25
0	60472	34.7	25
0	60635	34.8	25
0	60828	34.9	25
0	61003	35	25
0	61184	35.1	25
0	61371	35.2	25
0	61564	35.3	25
0	61723	35.4	25
0	61900	35.5	25
0	62093	35.6	25
0	62250	35.7	25
0	62385	35.8	25
0	62562	35.9	25
0	62747	36	25
0	62934	36.1	25
0	63119	36.2	25
0	63302	36.3	25
0	63485	36.4	25
0	63652	36.5	25
0	63833	36.6	25
0	64016	36.7	25
0	64201	36.8	25
0	64410	36.9	25
0	64601	37	25
0	64770	37.1	25
0	64949	37.2	25
0	65138	37.3	25
0	65299	37.4	25
0	65436	37.5	25
0	65619	37.6	25
0	65800	37.7	25
0	65995	37.8	25
0	66176	37.9	25
0	66367	38	25
0	66572	38.1	25
0	66737	38.2	25
0	66878	38.3	25
0	67083	38.4	25
0	67270	38.5	25
0	67443	38.6	25
0	67606	38.7	25
0	67765	38.8	25
0	67960	38.9	25
0	68127	39	25
0	68308	39.1	25
0	68487	39.2	25
0	68698	39.3	25
0	68871	39.4	25
0	69038	39.5	25
0	69195	39.6	25
0	69368	39.7	25
0	69549	39.8	25
0	69686	39.9	25
0	69863	40	25
0	70052	40.1	25
0	70219	40.2	25
0	70398	40.3	25
0	70591	40.4	25
0	70764	40.5	25
0	70941	40.6	25
0	71128	40.7	25
0	71305	40.8	25
0	71476	40.9	25
0	71647	41	25
0	71834	41.1	25
0	71983	41.2	25
0	72168	41.3	25
0	72349	41.4	25
0	72572	41.5	25
0	72735	41.6	25
0	72896	41.7	25
0	73055	41.8	25
0	73230	41.9	25
0	73411	42	25
0	73590	42.1	25
0	73785	42.2	25
0	73970	42.3	25
0	74137	42.4	25
0	74310	42.5	25
0	74485	42.6	25
0	74656	42.7	25
0	74833	42.8	25
0	75000	42.9	25
0	75171	43	25
0	75364	43.1	25
0	75547	43.2	25
0	75746	43.3	25
0	75943	43.4	25
0	76110	43.5	25
0	76297	43.6	25
0	76498	43.7	25
0	76659	43.8	25
0	76828	43.9	25
0	77017	44	25
0	77198	44.1	25
0	77381	44.2	25
0	77554	44.3	25
0	77733	44.4	25
0	77910	44.5	25
0	78087	44.6	25
0	78278	44.7	25
0	78487	44.8	25
0	78650	44.9	25
0	78829	45	25
0	79002	45.1	25
0	79165	45.2	25
0	79342	45.3	25
0	79523	45.4	25
0	79668	45.5	25
0	79847	45.6	25
0	80048	45.7	25
0	80253	45.8	25
0	80430	45.9	25
0	80609	46	25
0	80810	46.1	25
0	80975	46.2	25
0	81136	46.3	25
0	81303	46.4	25
0	81486	46.5	25
0	81627	46.6	25
0	81794	46.7	25
0	81947	46.8	25
0	82110	46.9	25
0	82293	47	25
0	82468	47.1	25
0	82631	47.2	25
0	82830	47.3	25
0	83013	47.4	25
0	83170	47.5	25
0	83325	47.6	25
0	83494	47.7	25
0	83651	47.8	25
0	83824	47.9	25
0	84019	48	25
0	84172	48.1	25
0	84345	48.2	25
0	84534	48.3	25
0	84693	48.4	25
0	84860	48.5	25
0	85059	48.6	25
0	85212	48.7	25
0	85379	48.8	25
0	85564	48.9	25
0	85747	49	25
0	85918	49.1	25
0	86129	49.2	25
0	86302	49.3	25
0	86477	49.4	25
0	86622	49.5	25
0	86811	49.6	25
0	86984	49.7	25
0	87141	49.8	25
0	87314	49.9	25
0	87499	50	25
0	87664	50.1	25
0	87813	50.2	25
0	88004	50.3	25
0	88173	50.4	25
0	88364	50.5	25
0	88557	50.6	25
0	88712	50.7	25
0	88889	50.8	25
0	89060	50.9	25
0	89287	51	25
0	89446	51.1	25
0	89625	51.2	25
0	89774	51.3	25
0	89935	51.4	25
0	90116	51.5	25
0	90289	51.6	25
0	90466	51.7	25
0	90663	51.8	25
0	90850	51.9	25
0	91047	52	25
0	91248	52.1	25
0	91401	52.2	25
0	91592	52.3	25
0	91781	52.4	25
0	91976	52.5	25
0	92165	52.6	25
0	92348	52.7	25
0	92491	52.8	25
0	92650	52.9	25
0	92787	53	25
0	92984	53.1	25
0	93165	53.2	25
0	93364	53.3	25
0	93533	53.4	25
0	93736	53.5	25
0	93921	53.6	25
0	94066	53.7	25
0	94233	53.8	25
0	94420	53.9	25
0	94597	54	25
0	94768	54.1	25
0	94925	54.2	25
0	95098	54.3	25
0	95279	54.4	25
0	95460	54.5	25
0	95613	54.6	25
0	95784	54.7	25
0	95951	54.8	25
0	96130	54.9	25
0	96311	55	25
0	96522	55.1	25
0	96709	55.2	25
0	96902	55.3	25
0	97077	55.4	25
0	97222	55.5	25
0	97399	55.6	25
0	97556	55.7	25
0	97749	55.8	25
0	97916	55.9	25
0	98067	56	25
0	98246	56.1	25
0	98423	56.2	25
0	98582	56.3	25
0	98759	56.4	25
0	98914	56.5	25
0	99095	56.6	25
0	99256	56.7	25
0	99401	56.8	25
0	99580	56.9	25
0	99741	57	25
0	99944	57.1	25
0	100109	57.2	25
0	100294	57.3	25
0	100469	57.4	25
0	100650	57.5	25
0	100815	57.6	25
0	100992	57.7	25
0	101167	57.8	25
0	101332	57.9	25
0	101499	58	25
0	101662	58.1	25
0	101813	58.2	25
0	101974	58.3	25
0	102129	58.4	25
0	102302	58.5	25
0	102467	58.6	25
0	102636	58.7	25
0	102803	58.8	25
0	102992	58.9	25
0	103161	59	25
0	103352	59.1	25
0	103517	59.2	25
0	103676	59.3	25
0	103837	59.4	25
0	104018	59.5	25
0	104185	59.6	25
0	104356	59.7	25
0	104533	59.8	25
0	104722	59.9	25
0	104909	60	25
0	105100	60.1	25
0	105265	60.2	25
0	105440	60.3	25
0	105605	60.4	25
0	105782	60.5	25
0	105969	60.6	25
0	106144	60.7	25
0	106309	60.8	25
0	106480	60.9	25
0	106647	61	25
0	106834	61.1	25
0	107049	61.2	25
0	107224	61.3	25
0	107395	61.4	25
0	107590	61.5	25
0	107767	61.6	25
0	107950	61.7	25
0	108135	61.8	25
0	108326	61.9	25
0	108535	62	25
0	108700	62.1	25
0	108867	62.2	25
0	109032	62.3	25
0	109191	62.4	25
0	109368	62.5	25
0	109557	62.6	25
0	109762	62.7	25
0	109921	62.8	25
0	110088	62.9	25
0	110253	63	25
0	110406	63.1	25
0	110611	63.2	25
0	110780	63.3	25
0	110957	63.4	25
0	111170	63.5	25
0	111343	63.6	25
0	111526	63.7	25
0	111693	63.8	25
0	111900	63.9	25
0	112051	64	25
0	112208	64.1	25
0	112403	64.2	25
0	112602	64.3	25
0	112815	64.4	25
0	112998	64.5	25
0	113167	64.6	25
0	113334	64.7	25
0	113527	64.8	25
0	113712	64.9	25
0	113881	65	25
0	114038	65.1	25
0	114185	65.2	25
0	114372	65.3	25
0	114537	65.4	25
0	114700	65.5	25
0	114857	65.6	25
0	115020	65.7	25
0	115187	65.8	25
0	115366	65.9	25
0	115537	66	25
0	115688	66.1	25
0	115871	66.2	25
0	116046	66.3	25
0	116239	66.4	25
0	116428	66.5	25
0	116603	66.6	25
0	116780	66.7	25
0	116935	66.8	25
0	117110	66.9	25
0	117303	67	25
0	117462	67.1	25
0	117657	67.2	25
0	117844	67.3	25
0	118001	67.4	25
0	118188	67.5	25
0	118359	67.6	25
0	118502	67.7	25
0	118687	67.8	25
0	118870	67.9	25
0	119051	68	25
0	119236	68.1	25
0	119395	68.2	25
0	119564	68.3	25
0	119735	68.4	25
0	119922	68.5	25
0	120111	68.6	25
0	120318	68.7	25
0	120495	68.8	25
0	120708	68.9	25
0	120897	69	25
0	121070	69.1	25
0	121235	69.2	25
0	121420	69.3	25
0	121609	69.4	25
0	121786	69.5	25
0	121973	69.6	25
0	122150	69.7	25
0	122345	69.8	25
0	122508	69.9	25
0	122689	70	25
1	177	0.1	0.0152098326
1	356	0.2	0.008648174895
1	356	0.2	0.079498272312
1	356	0.2	0.093056578107
1	724	0.4	0.133835110553
1	724	0.4	0.172926268377
1	1412	0.8	0.004972556738
1	1412	0.8	0.018973149263
1	1412	0.8	0.111394595352
1	1412	0.8	0.111798645142
1	1412	0.8	0.113320595171
1	1412	0.8	0.18783433424
1	1412	0.8	0.195062370618
1	1412	0.8	0.206990386941
1	1412	0.8	0.235391427142
1	1412	0.8	0.290028402931
1	1412	0.8	0.327988914911
1	1412	0.8	0.45282528873
1	1412	0.8	0.49018346371
1	1412	0.8	0.492446632558
1	2120	1.2	0.011675502391
1	2120	1.2	0.073908785689
1	2120	1.2	0.076649288442
1	2120	1.2	0.101665770602
1	2120	1.2	0.142294585922
1	2120	1.2	0.175138363135
1	2120	1.2	0.233950143048
1	2120	1.2	0.332286463111
1	2120	1.2	0.347534756722
1	2120	1.2	0.398968301865
1	2832	1.6	0.028904923083
1	2832	1.6	0.029208541976
1	2832	1.6	0.076522334992
1	2832	1.6	0.14292165853
1	2832	1.6	0.153364974593
1	2832	1.6	0.164273320944
1	2832	1.6	0.238996235168
1	2832	1.6	0.279731779921
1	2832	1.6	0.318861925767
1	2832	1.6	0.37696300696
1	2832	1.6	0.384986388812
1	3683	2.1	0.002535261799
1	3683	2.1	0.007956631933
1	3683	2.1	0.019648152381
1	3683	2.1	0.034142515382
1	3683	2.1	0.036052090423
1	3683	2.1	0.230749829147
1	3683	2.1	0.281151023834
1	3683	2.1	0.374297589504
1	3683	2.1	0.377793518036
1	3683	2.1	0.386451800543
1	4512	2.6	0.02571262778
1	4512	2.6	0.11009332813
1	4512	2.6	0.110105188931
1	4512	2.6	0.165372182846
1	4512	2.6	0.181523295511
1	4512	2.6	0.245680166273
1	4512	2.6	0.282234753489
1	4512	2.6	0.318666444073
1	4512	2.6	0.348418168954
1	4512	2.6	0.474176683287
1	4512	2.6	0.474942148047
1	5650	3.2	0.037517698349
1	5650	3.2	0.06302665413
1	5650	3.2	0.070445336672
1	5650	3.2	0.072794007997
1	5650	3.2	0.097541810105
1	5650	3.2	0.122908888719
1	5650	3.2	0.133566093703
1	5650	3.2	0.187672770135
1	5650	3.2	0.249503541572
1	5650	3.2	0.250387167263
1	5650	3.2	0.270698933031
1	5650	3.2	0.29205166566
1	5650	3.2	0.296077839935
1	5650	3.2	0.301967719444
1	5650	3.2	0.310702748409
1	5650	3.2	0.326570926214
1	5650	3.2	0.479897467879
1	5650	3.2	0.493418001923
1	5650	3.2	0.504743245948
1	5650	3.2	0.589763376825
1	7068	4	0.002925238371
1	7068	4	0.020939789343
1	7068	4	0.050554971063
1	7068	4	0.128734448386
1	7068	4	0.160532272213
1	7068	4	0.209061697686
1	7068	4	0.349473663613
1	7068	4	0.390724764412
1	7068	4	0.401721499
1	7068	4	0.423913490907
1	7068	4	0.460125213997
1	7068	4	0.566132748933
1	7068	4	0.570848026966
1	7068	4	0.576577275346
1	7068	4	0.624452089884
1	7068	4	0.635655318567
1	7068	4	0.638979371477
1	7068	4	0.645891485389
1	7068	4	0.695711671584
1	7068	4	0.697720262323
1	7068	4	0.69847370981
1	7068	4	0.700188509726
1	7068	4	0.749012405045
1	8410	4.8	0.083496434496
1	8410	4.8	0.145056623363
1	8410	4.8	0.156374424679
1	8410	4.8	0.158068512648
1	8410	4.8	0.182280130943
1	8410	4.8	0.205419329806
1	8410	4.8	0.275733802226
1	8410	4.8	0.285037591492
1	8410	4.8	0.320221704
1	8410	4.8	0.358947371408
1	8410	4.8	0.446571518907
1	8410	4.8	0.446993241611
1	8410	4.8	0.520000042242
1	8410	4.8	0.558413291211
1	8410	4.8	0.562260908618
1	8410	4.8	0.570082685957
1	8410	4.8	0.618194053937
1	8410	4.8	0.68761124496
1	9826	5.6	0.324450033825
1	9826	5.6	0.359185464882
1	9826	5.6	0.431742789883
1	9826	5.6	0.507944897734
1	9826	5.6	0.632791733061
1	9826	5.6	0.752315162203
1	9826	5.6	0.764521275535
1	11600	6.6	0.038291000989
1	11600	6.6	0.041267630557
1	11600	6.6	0.042547152093
1	11600	6.6	0.090294129343
1	11600	6.6	0.110149886047
1	11600	6.6	0.142691948772
1	11600	6.6	0.160231258079
1	11600	6.6	0.164482384668
1	11600	6.6	0.21391114176
1	11600	6.6	0.218140402933
1	11600	6.6	0.401021829105
1	11600	6.6	0.441537613933
1	11600	6.6	0.469472029215
1	11600	6.6	0.475663844695
1	11600	6.6	0.488362883577
1	11600	6.6	0.534526898999
1	11600	6.6	0.544405379616
1	11600	6.6	0.58451706495
1	11600	6.6	0.595655354967
1	11600	6.6	0.601213213964
1	11600	6.6	0.629842423595
1	11600	6.6	0.63690457432
1	11600	6.6	0.684778962898
1	11600	6.6	0.710873068064
1	11600	6.6	0.734505026513
1	11600	6.6	0.769003533842
1	11600	6.6	0.775766410497
1	11600	6.6	0.779395892617
1	11600	6.6	0.803283708633
1	11600	6.6	0.834531221333
1	11600	6.6	0.853603808561
1	11600	6.6	0.866676819096
1	11600	6.6	0.878264577104
1	11600	6.6	0.927113012221
1	11600	6.6	0.988660647592
1	11600	6.6	1.006463689666
1	11600	6.6	1.056700696715
1	11600	6.6	1.149363525676
1	11600	6.6	1.164554110765
1	11600	6.6	1.18871496269
1	11600	6.6	1.244295773701
1	11600	6.6	1.270854214823
1	11600	6.6	1.310136090394
1	11600	6.6	1.313729194439
1	11600	6.6	1.317312962188
1	13167	7.5	0.793026163151
1	13167	7.5	0.811632289801
1	14893	8.5	0.010293070398
1	14893	8.5	0.029782913329
1	14893	8.5	0.06781615629
1	14893	8.5	0.100906141214
1	14893	8.5	0.137528231078
1	14893	8.5	0.169822806369
1	14893	8.5	0.238149858168
1	14893	8.5	0.251825575614
1	14893	8.5	0.298543994225
1	14893	8.5	0.436332776221
1	14893	8.5	0.509413257468
1	14893	8.5	0.50953736798
1	14893	8.5	0.537069824303
1	14893	8.5	0.539881090048
1	14893	8.5	0.568968698577
1	14893	8.5	0.608444159381
1	14893	8.5	0.615202829597
1	14893	8.5	0.666277342979
1	14893	8.5	0.718064184108
1	14893	8.5	0.721251371194
1	14893	8.5	0.721294065234
1	14893	8.5	0.803272228362
1	14893	8.5	0.856671243297
1	14893	8.5	0.872978765
1	14893	8.5	0.945773615268
1	14893	8.5	1.011174412301
1	14893	8.5	1.08041176413
1	14893	8.5	1.110104464317
1	14893	8.5	1.11520995521
1	14893	8.5	1.119994940977
1	14893	8.5	1.157964529259