version 3
run uniformCQI-0-20231214-17:50:18-23196
attr configname uniformCQI
attr datetime 20231214-17:50:18
attr datetimef 20231214-175018
attr experiment uniformCQI
attr inifile omnetpp.ini
attr iterationvars "$simulationTime=70s, $nUser=25, $lambda=25"
attr iterationvarsd simulationTime=70s/nUser=25/lambda=25
attr iterationvarsf simulationTime=70s,nUser=25,lambda=25-
attr measurement "$simulationTime=70s, $nUser=25, $lambda=25"
attr network Network
attr processid 23196
attr repetition 0
attr replication #0
attr resultdir results
attr runnumber 0
attr seedset 0
itervar lambda 25
itervar nUser 25
itervar simulationTime 70s
config **.Users[*].CQIdistribution "\"uniform\""
config network Network
config cpu-time-limit 60s
config sim-time-limit 70s
config num-rngs 600
config repeat 10
config seed-set 0
config **.NUM_USER 25
config **.LAMBDA 25
config **.CQIArrayLength 15
config **.CQIValues "\" 3 3 6 11 15 20 25 36 39 50 63 72 80 93 93 \""
config **.frameSize 25
config **.timeSlot 0.1

vector 0 Network.BS simFrameStat:vector ETV
attr "" ""
attr recordingmode vector
attr source simFrame
attr title "Occupied frame slots"
vector 1 Network.Users[0] packetDelayStat:vector ETV
attr "" ""
attr recordingmode vector
attr source packetDelay
attr title "Packet delay"
vector 2 Network.Users[0] packetsReceivedStat:vector ETV
attr "" ""
attr recordingmode vector
attr source packetsReceived
attr title "Packets received per timeslot"
vector 3 Network.Users[0] throughputStat:vector ETV
attr "" ""
attr recordingmode vector
attr source throughput
attr title Throughput
vector 4 Network.Users[1] packetDelayStat:vector ETV
attr "" ""
attr recordingmode vector
attr source packetDelay
attr title "Packet delay"
vector 5 Network.Users[1] packetsReceivedStat:vector ETV
attr "" ""
attr recordingmode vector
attr source packetsReceived
attr title "Packets received per timeslot"
vector 6 Network.Users[1] throughputStat:vector ETV
attr "" ""
attr recordingmode vector
attr source throughput
attr title Throughput
vector 7 Network.Users[2] packetDelayStat:vector ETV
attr "" ""
attr recordingmode vector
attr source packetDelay
attr title "Packet delay"
vector 8 Network.Users[2] packetsReceivedStat:vector ETV
attr "" ""
attr recordingmode vector
attr source packetsReceived
attr title "Packets received per timeslot"
vector 9 Network.Users[2] throughputStat:vector ETV
attr "" ""
attr recordingmode vector
attr source throughput
attr title Throughput
0	164	0.1	7
1	165	0.1	0.00426617402
1	165	0.1	0.041924171171
1	165	0.1	0.053724467031
1	165	0.1	0.056815980298
1	165	0.1	0.067171115722
1	165	0.1	0.072703666184
2	165	0.1	6
3	165	0.1	26
4	166	0.1	0.0088071253
4	166	0.1	0.037275986902
4	166	0.1	0.039105690952
4	166	0.1	0.054952673755
5	166	0.1	4
6	166	0.1	19
7	167	0.1	0.030710834896
8	167	0.1	1
9	167	0.1	8
vector 10 Network.Users[3] packetDelayStat:vector ETV
attr "" ""
attr recordingmode vector
attr source packetDelay
attr title "Packet delay"
vector 11 Network.Users[3] packetsReceivedStat:vector ETV
attr "" ""
attr recordingmode vector
attr source packetsReceived
attr title "Packets received per timeslot"
vector 12 Network.Users[3] throughputStat:vector ETV
attr "" ""
attr recordingmode vector
attr source throughput
attr title Throughput
vector 13 Network.Users[4] packetDelayStat:vector ETV
attr "" ""
attr recordingmode vector
attr source packetDelay
attr title "Packet delay"
vector 14 Network.Users[4] packetsReceivedStat:vector ETV
attr "" ""
attr recordingmode vector
attr source packetsReceived
attr title "Packets received per timeslot"
vector 15 Network.Users[4] throughputStat:vector ETV
attr "" ""
attr recordingmode vector
attr source throughput
attr title Throughput
vector 16 Network.Users[5] packetDelayStat:vector ETV
attr "" ""
attr recordingmode vector
attr source packetDelay
attr title "Packet delay"
vector 17 Network.Users[5] packetsReceivedStat:vector ETV
attr "" ""
attr recordingmode vector
attr source packetsReceived
attr title "Packets received per timeslot"
vector 18 Network.Users[5] throughputStat:vector ETV
attr "" ""
attr recordingmode vector
attr source throughput
attr title Throughput
vector 19 Network.Users[6] packetsReceivedStat:vector ETV
attr "" ""
attr recordingmode vector
attr source packetsReceived
attr title "Packets received per timeslot"
vector 20 Network.Users[6] throughputStat:vector ETV
attr "" ""
attr recordingmode vector
attr source throughput
attr title Throughput
vector 21 Network.Users[7] packetsReceivedStat:vector ETV
attr "" ""
attr recordingmode vector
attr source packetsReceived
attr title "Packets received per timeslot"
vector 22 Network.Users[7] throughputStat:vector ETV
attr "" ""
attr recordingmode vector
attr source throughput
attr title Throughput
vector 23 Network.Users[8] packetsReceivedStat:vector ETV
attr "" ""
attr recordingmode vector
attr source packetsReceived
attr title "Packets received per timeslot"
vector 24 Network.Users[8] throughputStat:vector ETV
attr "" ""
attr recordingmode vector
attr source throughput
attr title Throughput
vector 25 Network.Users[9] packetsReceivedStat:vector ETV
attr "" ""
attr recordingmode vector
attr source packetsReceived
attr title "Packets received per timeslot"
vector 26 Network.Users[9] throughputStat:vector ETV
attr "" ""
attr recordingmode vector
attr source throughput
attr title Throughput
vector 27 Network.Users[10] packetsReceivedStat:vector ETV
attr "" ""
attr recordingmode vector
attr source packetsReceived
attr title "Packets received per timeslot"
vector 28 Network.Users[10] throughputStat:vector ETV
attr "" ""
attr recordingmode vector
attr source throughput
attr title Throughput
vector 29 Network.Users[11] packetsReceivedStat:vector ETV
attr "" ""
attr recordingmode vector
attr source packetsReceived
attr title "Packets received per timeslot"
vector 30 Network.Users[11] throughputStat:vector ETV
attr "" ""
attr recordingmode vector
attr source throughput
attr title Throughput
vector 31 Network.Users[12] packetsReceivedStat:vector ETV
attr "" ""
attr recordingmode vector
attr source packetsReceived
attr title "Packets received per timeslot"
vector 32 Network.Users[12] throughputStat:vector ETV
attr "" ""
attr recordingmode vector
attr source throughput
attr title Throughput
vector 33 Network.Users[13] packetsReceivedStat:vector ETV
attr "" ""
attr recordingmode vector
attr source packetsReceived
attr title "Packets received per timeslot"
vector 34 Network.Users[13] throughputStat:vector ETV
attr "" ""
attr recordingmode vector
attr source throughput
attr title Throughput
vector 35 Network.Users[14] packetsReceivedStat:vector ETV
attr "" ""
attr recordingmode vector
attr source packetsReceived
attr title "Packets received per timeslot"
vector 36 Network.Users[14] throughputStat:vector ETV
attr "" ""
attr recordingmode vector
attr source throughput
attr title Throughput
vector 37 Network.Users[15] packetsReceivedStat:vector ETV
attr "" ""
attr recordingmode vector
attr source packetsReceived
attr title "Packets received per timeslot"
vector 38 Network.Users[15] throughputStat:vector ETV
attr "" ""
attr recordingmode vector
attr source throughput
attr title Throughput
vector 39 Network.Users[16] packetsReceivedStat:vector ETV
attr "" ""
attr recordingmode vector
attr source packetsReceived
attr title "Packets received per timeslot"
vector 40 Network.Users[16] throughputStat:vector ETV
attr "" ""
attr recordingmode vector
attr source throughput
attr title Throughput
vector 41 Network.Users[17] packetsReceivedStat:vector ETV
attr "" ""
attr recordingmode vector
attr source packetsReceived
attr title "Packets received per timeslot"
vector 42 Network.Users[17] throughputStat:vector ETV
attr "" ""
attr recordingmode vector
attr source throughput
attr title Throughput
vector 43 Network.Users[18] packetsReceivedStat:vector ETV
attr "" ""
attr recordingmode vector
attr source packetsReceived
attr title "Packets received per timeslot"
vector 44 Network.Users[18] throughputStat:vector ETV
attr "" ""
attr recordingmode vector
attr source throughput
attr title Throughput
vector 45 Network.Users[19] packetsReceivedStat:vector ETV
attr "" ""
attr recordingmode vector
attr source packetsReceived
attr title "Packets received per timeslot"
vector 46 Network.Users[19] throughputStat:vector ETV
attr "" ""
attr recordingmode vector
attr source throughput
attr title Throughput
vector 47 Network.Users[20] packetsReceivedStat:vector ETV
attr "" ""
attr recordingmode vector
attr source packetsReceived
attr title "Packets received per timeslot"
vector 48 Network.Users[20] throughputStat:vector ETV
attr "" ""
attr recordingmode vector
attr source throughput
attr title Throughput
vector 49 Network.Users[21] packetsReceivedStat:vector ETV
attr "" ""
attr recordingmode vector
attr source packetsReceived
attr title "Packets received per timeslot"
vector 50 Network.Users[21] throughputStat:vector ETV
attr "" ""
attr recordingmode vector
attr source throughput
attr title Throughput
vector 51 Network.Users[22] packetsReceivedStat:vector ETV
attr "" ""
attr recordingmode vector
attr source packetsReceived
attr title "Packets received per timeslot"
vector 52 Network.Users[22] throughputStat:vector ETV
attr "" ""
attr recordingmode vector
attr source throughput
attr title Throughput
vector 53 Network.Users[23] packetsReceivedStat:vector ETV
attr "" ""
attr recordingmode vector
attr source packetsReceived
attr title "Packets received per timeslot"
vector 54 Network.Users[23] throughputStat:vector ETV
attr "" ""
attr recordingmode vector
attr source throughput
attr title Throughput
vector 55 Network.Users[24] packetsReceivedStat:vector ETV
attr "" ""
attr recordingmode vector
attr source packetsReceived
attr title "Packets received per timeslot"
vector 56 Network.Users[24] throughputStat:vector ETV
attr "" ""
attr recordingmode vector
attr source throughput
attr title Throughput
vector 57 Network.Users[12] packetDelayStat:vector ETV
attr "" ""
attr recordingmode vector
attr source packetDelay
attr title "Packet delay"
vector 58 Network.Users[13] packetDelayStat:vector ETV
attr "" ""
attr recordingmode vector
attr source packetDelay
attr title "Packet delay"
vector 59 Network.Users[14] packetDelayStat:vector ETV
attr "" ""
attr recordingmode vector
attr source packetDelay
attr title "Packet delay"
vector 60 Network.Users[15] packetDelayStat:vector ETV
attr "" ""
attr recordingmode vector
attr source packetDelay
attr title "Packet delay"
vector 61 Network.Users[16] packetDelayStat:vector ETV
attr "" ""
attr recordingmode vector
attr source packetDelay
attr title "Packet delay"
vector 62 Network.Users[21] packetDelayStat:vector ETV
attr "" ""
attr recordingmode vector
attr source packetDelay
attr title "Packet delay"
vector 63 Network.Users[22] packetDelayStat:vector ETV
attr "" ""
attr recordingmode vector
attr source packetDelay
attr title "Packet delay"
vector 64 Network.Users[23] packetDelayStat:vector ETV
attr "" ""
attr recordingmode vector
attr source packetDelay
attr title "Packet delay"
vector 65 Network.Users[24] packetDelayStat:vector ETV
attr "" ""
attr recordingmode vector
attr source packetDelay
attr title "Packet delay"
vector 66 Network.Users[6] packetDelayStat:vector ETV
attr "" ""
attr recordingmode vector
attr source packetDelay
attr title "Packet delay"
vector 67 Network.Users[7] packetDelayStat:vector ETV
attr "" ""
attr recordingmode vector
attr source packetDelay
attr title "Packet delay"
vector 68 Network.Users[8] packetDelayStat:vector ETV
attr "" ""
attr recordingmode vector
attr source packetDelay
attr title "Packet delay"
vector 69 Network.Users[9] packetDelayStat:vector ETV
attr "" ""
attr recordingmode vector
attr source packetDelay
attr title "Packet delay"
vector 70 Network.Users[10] packetDelayStat:vector ETV
attr "" ""
attr recordingmode vector
attr source packetDelay
attr title "Packet delay"
vector 71 Network.Users[20] packetDelayStat:vector ETV
attr "" ""
attr recordingmode vector
attr source packetDelay
attr title "Packet delay"
vector 72 Network.Users[11] packetDelayStat:vector ETV
attr "" ""
attr recordingmode vector
attr source packetDelay
attr title "Packet delay"
vector 73 Network.Users[17] packetDelayStat:vector ETV
attr "" ""
attr recordingmode vector
attr source packetDelay
attr title "Packet delay"
vector 74 Network.Users[18] packetDelayStat:vector ETV
attr "" ""
attr recordingmode vector
attr source packetDelay
attr title "Packet delay"
vector 75 Network.Users[19] packetDelayStat:vector ETV
attr "" ""
attr recordingmode vector
attr source packetDelay
attr title "Packet delay"
0	335	0.2	25
0	514	0.3	25
0	695	0.4	25
0	852	0.5	25
0	1021	0.6	25
0	1208	0.7	25
0	1399	0.8	25
0	1568	0.9	25
0	1753	1	25
0	1950	1.1	25
0	2123	1.2	25
0	2322	1.3	25
0	2485	1.4	25
0	2654	1.5	25
0	2843	1.6	25
0	3056	1.7	25
0	3227	1.8	25
0	3394	1.9	2
0	3577	2	25
0	3760	2.1	25
0	3941	2.2	25
0	4110	2.3	25
0	4287	2.4	25
0	4456	2.5	25
0	4637	2.6	25
0	4788	2.7	19
0	4997	2.8	25
0	5168	2.9	25
0	5333	3	25
0	5510	3.1	25
0	5703	3.2	25
0	5892	3.3	25
0	6073	3.4	25
0	6228	3.5	25
0	6431	3.6	25
0	6586	3.7	25
0	6771	3.8	25
0	6942	3.9	25
0	7099	4	25
0	7262	4.1	25
0	7451	4.2	25
0	7632	4.3	25
0	7795	4.4	25
0	7980	4.5	25
0	8131	4.6	25
0	8332	4.7	25
0	8511	4.8	25
0	8680	4.9	25
0	8845	5	25
0	9026	5.1	25
0	9207	5.2	25
0	9406	5.3	25
0	9591	5.4	25
0	9774	5.5	25
0	9945	5.6	25
0	10094	5.7	25
0	10253	5.8	25
0	10420	5.9	25
0	10583	6	25
0	10726	6.1	25
0	10891	6.2	25
0	11080	6.3	25
0	11275	6.4	25
0	11454	6.5	25
0	11617	6.6	25
0	11786	6.7	25
0	11969	6.8	25
0	12164	6.9	25
0	12353	7	25
0	12516	7.1	25
0	12723	7.2	25
0	12888	7.3	25
0	13051	7.4	25
0	13200	7.5	25
0	13361	7.6	25
0	13536	7.7	25
0	13703	7.8	25
0	13864	7.9	25
0	14041	8	25
0	14210	8.1	25
0	14379	8.2	25
0	14558	8.3	25
0	14723	8.4	25
0	14900	8.5	25
0	15081	8.6	25
0	15274	8.7	25
0	15479	8.8	25
0	15640	8.9	25
0	15829	9	25
0	16026	9.1	25
0	16221	9.2	25
0	16400	9.3	25
0	16619	9.4	25
0	16796	9.5	25
0	16977	9.6	25
0	17146	9.7	25
0	17313	9.8	25
0	17484	9.9	25
0	17637	10	25
0	17810	10.1	25
0	17993	10.2	25
0	18188	10.3	25
0	18357	10.4	25
0	18548	10.5	25
0	18741	10.6	25
0	18906	10.7	25
0	19089	10.8	25
0	19256	10.9	25
0	19397	11	25
0	19566	11.1	25
0	19735	11.2	25
0	19894	11.3	25
0	20083	11.4	25
0	20270	11.5	25
0	20455	11.6	25
0	20638	11.7	25
0	20821	11.8	25
0	20976	11.9	25
0	21141	12	25
0	21320	12.1	25
0	21489	12.2	25
0	21638	12.3	3
0	21817	12.4	24
0	22000	12.5	25
0	22139	12.6	25
0	22308	12.7	25
0	22473	12.8	25
0	22636	12.9	25
0	22795	13	25
0	22990	13.1	25
0	23163	13.2	25
0	23324	13.3	25
0	23493	13.4	25
0	23680	13.5	25
0	23839	13.6	12
0	24038	13.7	0
0	24203	13.8	0
0	24394	13.9	25
0	24579	14	25
0	24756	14.1	25
0	24951	14.2	25
0	25160	14.3	25
0	25369	14.4	25
0	25576	14.5	25
0	25735	14.6	25
0	25920	14.7	25
0	26141	14.8	25
0	26310	14.9	25
0	26461	15	25
0	26664	15.1	25
0	26815	15.2	25
0	26988	15.3	25
0	27169	15.4	25
0	27342	15.5	25
0	27545	15.6	25
0	27720	15.7	25
0	27885	15.8	25
0	28092	15.9	25
0	28269	16	25
0	28440	16.1	25
0	28593	16.2	13
0	28786	16.3	25
0	28959	16.4	25
0	29148	16.5	25
0	29317	16.6	25
0	29490	16.7	25
0	29667	16.8	25
0	29862	16.9	25
0	30027	17	25
0	30184	17.1	25
0	30385	17.2	25
0	30556	17.3	25
0	30719	17.4	25
0	30902	17.5	25
0	31083	17.6	25
0	31292	17.7	25
0	31465	17.8	25
0	31638	17.9	25
0	31803	18	25
0	31990	18.1	25
0	32197	18.2	25
0	32350	18.3	25
0	32497	18.4	25
0	32662	18.5	25
0	32827	18.6	25
0	33000	18.7	25
0	33145	18.8	25
0	33344	18.9	25
0	33513	19	25
0	33700	19.1	25
0	33897	19.2	25
0	34086	19.3	11
0	34271	19.4	25
0	34446	19.5	25
0	34593	19.6	25
0	34792	19.7	25
0	34993	19.8	25
0	35170	19.9	25
0	35355	20	25
0	35530	20.1	25
0	35715	20.2	25
0	35898	20.3	25
0	36067	20.4	1
0	36270	20.5	25
0	36437	20.6	0
0	36574	20.7	25
0	36753	20.8	25
0	36940	20.9	25
0	37141	21	25
0	37304	21.1	25
0	37523	21.2	25
0	37678	21.3	25
0	37859	21.4	16
0	38044	21.5	25
0	38195	21.6	25
0	38402	21.7	25
0	38571	21.8	25
0	38756	21.9	25
0	38919	22	25
0	39080	22.1	25
0	39251	22.2	25
0	39400	22.3	25
0	39593	22.4	25
0	39756	22.5	25
0	39925	22.6	25
0	40112	22.7	25
0	40291	22.8	25
0	40462	22.9	2
0	40649	23	25
0	40814	23.1	25
0	41005	23.2	25
0	41174	23.3	25
0	41345	23.4	25
0	41538	23.5	25
0	41685	23.6	25
0	41846	23.7	25
0	42003	23.8	25
0	42212	23.9	25
0	42383	24	25
0	42538	24.1	25
0	42723	24.2	25
0	42916	24.3	25
0	43087	24.4	25
0	43254	24.5	25
0	43411	24.6	25
0	43574	24.7	25
0	43759	24.8	25
0	43914	24.9	25
0	44133	25	16
0	44286	25.1	25
0	44465	25.2	25
0	44644	25.3	25
0	44813	25.4	25
0	44982	25.5	25
0	45137	25.6	25
0	45274	25.7	25
0	45447	25.8	25
0	45616	25.9	25
0	45769	26	2
0	45936	26.1	25
0	46107	26.2	25
0	46296	26.3	25
0	46463	26.4	25
0	46650	26.5	25
0	46831	26.6	25
0	46996	26.7	25
0	47167	26.8	25
0	47372	26.9	25
0	47553	27	25
0	47724	27.1	25
0	47881	27.2	25
0	48060	27.3	25
0	48221	27.4	25
0	48412	27.5	25
0	48587	27.6	25
0	48744	27.7	25
0	48931	27.8	25
0	49116	27.9	25
0	49309	28	25
0	49504	28.1	25
0	49663	28.2	25
0	49834	28.3	25
0	50011	28.4	25
0	50184	28.5	25
0	50379	28.6	25
0	50586	28.7	25
0	50771	28.8	25
0	50938	28.9	25
0	51119	29	9
0	51312	29.1	25
0	51491	29.2	25
0	51674	29.3	25
0	51859	29.4	25
0	52026	29.5	25
0	52187	29.6	25
0	52356	29.7	25
0	52531	29.8	25
0	52700	29.9	25
0	52859	30	25
0	53060	30.1	25
0	53233	30.2	25
0	53408	30.3	25
0	53595	30.4	25
0	53774	30.5	25
0	53971	30.6	25
0	54140	30.7	25
0	54315	30.8	25
0	54482	30.9	25
0	54647	31	25
0	54824	31.1	25
0	54995	31.2	25
0	55170	31.3	25
0	55343	31.4	25
0	55538	31.5	25
0	55725	31.6	25
0	55918	31.7	25
0	56073	31.8	25
0	56270	31.9	25
0	56443	32	25
0	56616	32.1	25
0	56779	32.2	25
0	56980	32.3	25
0	57161	32.4	25
0	57356	32.5	25
0	57545	32.6	25
0	57724	32.7	25
0	57895	32.8	25
0	58088	32.9	25
0	58223	33	25
0	58392	33.1	25
0	58555	33.2	25
0	58734	33.3	25
0	58913	33.4	25
0	59080	33.5	25
0	59261	33.6	25
0	59456	33.7	25
0	59603	33.8	25
0	59780	33.9	25
0	59955	34	25
0	60144	34.1	25
0	60331	34.2	25
0	60512	34.3	25
0	60691	34.4	25
0	60856	34.5	25
0	61055	34.6	25
0	61266	34.7	25
0	61447	34.8	25
0	61616	34.9	25
0	61793	35	25
1	696	0.4	0.264261716959
1	696	0.4	0.283210303478
1	696	0.4	0.284077076432
1	853	0.5	0.006816782001
1	853	0.5	0.130600123254
1	853	0.5	0.357657262415
1	1951	1.1	0.461390551637
1	1951	1.1	0.52050834551
1	1951	1.1	0.585833509997
1	3057	1.7	0.008700612662
1	3057	1.7	0.026829263449
1	3057	1.7	0.056531458918
1	3057	1.7	0.11881859785
1	3057	1.7	0.147123383987
1	3057	1.7	0.191635894782
1	3057	1.7	0.211479119035
1	3057	1.7	0.223775941678
1	3057	1.7	0.268680634211
1	3057	1.7	0.270563084057
1	3057	1.7	0.358204848589
1	3057	1.7	0.387282245083
1	3057	1.7	0.402333494968
1	3057	1.7	0.413260683349
1	3057	1.7	0.446096006243
1	3057	1.7	0.460018260347
1	3057	1.7	0.555972604742
1	3057	1.7	0.55968408966
1	3057	1.7	0.703667128015
1	3057	1.7	0.856730242939
1	3057	1.7	0.863018242488
1	3057	1.7	0.899145648
1	3057	1.7	0.916485716615
1	3057	1.7	0.92227696719
1	3057	1.7	0.939295999172
1	3057	1.7	0.962439130858
1	3057	1.7	0.977282219934
1	3057	1.7	0.993015617333
1	3057	1.7	1.050189819589
1	4288	2.4	0.034241364459
1	4288	2.4	0.036408687153
1	4288	2.4	0.147643345116
1	4288	2.4	0.194869487141
1	4288	2.4	0.298980988759
1	4288	2.4	0.329073158261
1	4288	2.4	0.337002791333
1	4288	2.4	0.417123843371
1	4288	2.4	0.41944602998
1	4288	2.4	0.432427784395
1	4288	2.4	0.448271588417
1	4288	2.4	0.510425942344
1	4288	2.4	0.512572889921
1	4288	2.4	0.513309622858
1	4288	2.4	0.557455127209
1	4288	2.4	0.564753999772
1	4288	2.4	0.598640734597
1	4288	2.4	0.603456527913
1	4789	2.7	0.015128869927
1	4789	2.7	0.030436391546
1	4789	2.7	0.137573681467
1	4789	2.7	0.138279537481
1	4789	2.7	0.163056650977
1	4789	2.7	0.172041698888
1	4789	2.7	0.224815190924
1	4789	2.7	0.284157857385
1	6229	3.5	0.029065260043
1	6229	3.5	0.219153591856
1	6229	3.5	0.303321423926
1	6229	3.5	0.407467137281
1	6229	3.5	0.453340245002
1	6229	3.5	0.505926781211
1	6229	3.5	0.515969956474
1	6229	3.5	0.602703560998
1	6229	3.5	0.639231898292
1	6229	3.5	0.64846187598
1	6229	3.5	0.690445146971
1	6229	3.5	0.703400715679
1	6229	3.5	0.749380828995
1	6229	3.5	0.79426552218
1	10254	5.8	0.013224805593
1	10254	5.8	0.063562037212
1	10254	5.8	0.165738832619
1	10254	5.8	0.217320272168
1	10254	5.8	0.247238271212
1	10254	5.8	0.290760076386
1	10254	5.8	0.325822912103
1	10254	5.8	0.351464607246
1	10254	5.8	0.478335759196
1	10254	5.8	0.494934753826
1	10254	5.8	0.526021672854
1	10254	5.8	0.556308923243
1	10254	5.8	0.582295956784
1	10254	5.8	0.583351018048
1	10254	5.8	0.588116199225
1	10254	5.8	0.590105896002
1	10254	5.8	0.596090472212
1	10254	5.8	0.617618666873
1	10254	5.8	0.620670042793
1	10254	5.8	0.698622411719
1	10254	5.8	0.724711546673
1	10254	5.8	0.74178558767
1	10254	5.8	0.784923441522
1	10254	5.8	0.960335626193
1	10254	5.8	0.970640583488
1	10254	5.8	0.99982376032
1	10254	5.8	1.007694498345
1	10254	5.8	1.171186796328
1	10254	5.8	1.244239810277
1	10254	5.8	1.366812168523
1	10254	5.8	1.378605211499
1	10254	5.8	1.473712973734
1	10254	5.8	1.498945885119
1	10254	5.8	1.511549749294
1	10254	5.8	1.549910519922
1	10254	5.8	1.579328523185
1	10254	5.8	1.593306824847
1	10254	5.8	1.641346261718
1	10254	5.8	1.660968296488
1	10254	5.8	1.670873474256
1	10254	5.8	1.770098164217
1	10254	5.8	1.783815219683
1	10254	5.8	1.789149833417
1	10254	5.8	1.813458484421
1	10254	5.8	1.865207131717
1	10254	5.8	1.95666355295
1	10254	5.8	2.017563454371
1	10254	5.8	2.024353498323
1	10254	5.8	2.124335580073
1	10254	5.8	2.132781779825
1	10254	5.8	2.155407292579
1	10254	5.8	2.265338962279
1	10892	6.2	0.097949458916
1	10892	6.2	0.231226890548
1	10892	6.2	0.234088046619
1	10892	6.2	0.279995856095
1	10892	6.2	0.292240769387
1	10892	6.2	0.303855335501
1	10892	6.2	0.312565435773
1	11276	6.4	0.134901321097
1	11276	6.4	0.185254985392
1	11276	6.4	0.22259238181
1	11276	6.4	0.232889446536
1	11455	6.5	0.019297802952
1	11455	6.5	0.129724967394
1	11455	6.5	0.134683127179
1	11455	6.5	0.198615155403
1	12889	7.3	0.033199830107
1	12889	7.3	0.143344407225
1	12889	7.3	0.21230627886
1	12889	7.3	0.213667064133
1	12889	7.3	0.293604835266
1	12889	7.3	0.326044694356
1	12889	7.3	0.330923217415
1	12889	7.3	0.340939506942
1	12889	7.3	0.360254509745
1	12889	7.3	0.439855502143
1	12889	7.3	0.475413219165
1	12889	7.3	0.510980507282
1	12889	7.3	0.511540625436
1	12889	7.3	0.521224173893
1	12889	7.3	0.522643679327
1	12889	7.3	0.595726870581
1	12889	7.3	0.595945059111
1	12889	7.3	0.617976284341
1	12889	7.3	0.639872121154
1	12889	7.3	0.69177528359
1	12889	7.3	0.768665272202
1	13537	7.7	0.000211365985
1	13537	7.7	0.055442947711
1	13537	7.7	0.25569105848
1	13537	7.7	0.276226153613
1	13537	7.7	0.288002971646
1	13537	7.7	0.361392365747
1	13537	7.7	0.379700928765
1	13704	7.8	0.018386035337
1	13704	7.8	0.051191584987
1	13865	7.9	0.037481029481
1	13865	7.9	0.075478815309
1	15641	8.9	0.660491610077
1	15641	8.9	0.68820882906
1	15641	8.9	0.722582091667
1	15641	8.9	0.749260210931
1	15641	8.9	0.806295286477
1	15641	8.9	0.837230062482
1	15641	8.9	0.850073226958
1	15641	8.9	0.872255748571
1	15641	8.9	0.874715911389
1	15641	8.9	0.911606168555
1	15641	8.9	0.930160962507
1	15641	8.9	0.944319630284
1	16797	9.5	0.029968641068
1	16797	9.5	0.049145104905
1	16797	9.5	0.06613349948
1	16797	9.5	0.10208805974
1	16797	9.5	0.159694455202
1	16797	9.5	0.208791492839
1	16797	9.5	0.250330549486
1	16797	9.5	0.380237043496
1	16797	9.5	0.382549392984
1	16797	9.5	0.392098777684
1	16797	9.5	0.421045673728
1	16797	9.5	0.430428439591
1	16797	9.5	0.442569316799
1	16797	9.5	0.616348695183
1	16797	9.5	0.627319866818
1	16797	9.5	0.662221215402
1	16797	9.5	0.695210209371
1	16797	9.5	0.698135227155
1	16797	9.5	0.719405386695
1	16797	9.5	0.746107954693
1	16797	9.5	0.801535099068
1	16797	9.5	0.822519846069
1	16797	9.5	0.945904474991
1	16797	9.5	0.970751828562
1	16797	9.5	1.000317093127
1	16797	9.5	1.002356097769
1	16797	9.5	1.039042891761
1	16797	9.5	1.051242913064
1	16797	9.5	1.064415845629
1	16797	9.5	1.164194486299
1	17314	9.8	0.004602816254
1	17314	9.8	0.037933947218
1	17314	9.8	0.108377936687
1	17314	9.8	0.146506381859
1	17314	9.8	0.160612256734
1	17314	9.8	0.186452537633
1	17314	9.8	0.190215870216
1	17314	9.8	0.191407123198
1	17314	9.8	0.219327769601
1	17314	9.8	0.228687337855
1	17314	9.8	0.269413687261
1	17485	9.9	0.093594187973
1	17485	9.9	0.096885826936
1	19398	11	0.007573734214
1	19398	11	0.041164127068
1	19398	11	0.112097501445
1	19398	11	0.187910297734
1	19398	11	0.21339308335
1	19398	11	0.271046852772
1	19398	11	0.291966824748
1	19398	11	0.32064842068
1	19398	11	0.331384570056
1	19398	11	0.359596983692
1	19398	11	0.454155002181
1	19398	11	0.466959442068
1	19398	11	0.553018774925
1	19398	11	0.557569065114
1	19398	11	0.564851940783
1	19398	11	0.741307809589
1	19398	11	0.749210166617
1	19398	11	0.76663791688
1	19398	11	0.772083562613
1	19398	11	0.779318723685
1	19398	11	0.781040431386
1	19398	11	0.864914881622
1	19398	11	0.883397707976
1	19398	11	0.893559701855
1	19398	11	0.894226609061
1	19398	11	0.944144590537
1	19398	11	0.979644444915
1	19398	11	1.099653442521
1	22991	13.1	1.737781340729
1	22991	13.1	1.773929840104
1	22991	13.1	1.891020187191
1	22991	13.1	1.984107249581
1	22991	13.1	1.989059234075
1	22991	13.1	2.013569368275
1	22991	13.1	2.050190713057
1	22991	13.1	2.057828830376
1	22991	13.1	2.093760856253
1	23681	13.5	0.007593601504
1	23681	13.5	0.046276790917
1	23681	13.5	0.053758587287
1	23681	13.5	0.068946219744
1	23681	13.5	0.081706824822
1	23681	13.5	0.097986071427
1	23681	13.5	0.222391698385
1	23681	13.5	0.223498239089
1	23681	13.5	0.275616639985
1	23681	13.5	0.355694440561
1	23681	13.5	0.453433905856
1	23681	13.5	0.454501972288
1	23681	13.5	0.455425971681
1	23681	13.5	0.460340822478
1	23681	13.5	0.586449662315
1	23681	13.5	0.610058803484
1	23681	13.5	0.659538354016
1	23681	13.5	0.668289121449
1	23681	13.5	0.67041232244
1	23681	13.5	0.71619670938
1	23681	13.5	0.72733528099
1	23681	13.5	0.756973170438
1	23681	13.5	0.846282376636
1	23681	13.5	0.922702988385
1	23681	13.5	0.9676609109
1	23681	13.5	1.125448253702
1	23681	13.5	1.293641926409
1	23681	13.5	1.338992629953
1	23681	13.5	1.350203654135
1	23681	13.5	1.451232114772
1	23681	13.5	1.510468776847
1	23681	13.5	1.521058805155
1	23681	13.5	1.574110615079
1	23681	13.5	1.607879585766
1	23681	13.5	1.609389048429
1	23681	13.5	1.666136410981
1	23681	13.5	1.72957884653
1	23681	13.5	1.736997217237
1	23681	13.5	1.77766012542
1	23681	13.5	1.934078869493
1	23681	13.5	1.95553048819
1	23681	13.5	1.957220909983
1	23681	13.5	1.972522823268
1	23681	13.5	2.052319312925
1	23681	13.5	2.067074081747
1	23681	13.5	2.072924324657
1	23681	13.5	2.093735864114
1	23681	13.5	2.099810061041
1	23681	13.5	2.121092939407
1	26665	15.1	1.082371192959
1	26665	15.1	1.093009218374
1	26665	15.1	1.135207491468
1	26665	15.1	1.16569348777
1	26665	15.1	1.19205591599
1	26665	15.1	1.225875295271
1	26665	15.1	1.235559203215
1	26665	15.1	1.241607171761
1	26665	15.1	1.370958884784
1	26665	15.1	1.424563376449
1	26665	15.1	1.45123914181
1	26665	15.1	1.456842545961
1	26665	15.1	1.493132256164
1	26665	15.1	1.520113317386
1	26665	15.1	1.535609172566
1	26665	15.1	1.548596209979
1	26665	15.1	1.592013807999
1	27546	15.6	0.848547944279
1	27546	15.6	0.90937010599
1	27546	15.6	0.925986083412
1	27546	15.6	0.939829886568
1	27546	15.6	0.990593037679
1	27546	15.6	1.088350357431
1	27546	15.6	1.090697393853
1	27546	15.6	1.121738782674
1	27546	15.6	1.162211875616
1	27546	15.6	1.178177713895
1	27546	15.6	1.221392097144
1	27546	15.6	1.288917438481
1	27546	15.6	1.3004777355
1	27546	15.6	1.325757447298
1	27546	15.6	1.375662814451
1	27546	15.6	1.397494993615
1	27546	15.6	1.398245393033
1	27546	15.6	1.431192708631
1	27546	15.6	1.496795005734
1	27546	15.6	1.507894947667
1	27546	15.6	1.532895216755
1	27546	15.6	1.542988251396
1	27546	15.6	1.56890710152
1	28093	15.9	0.001359908112
1	28093	15.9	0.026168897565
1	28093	15.9	0.041855306195
1	28093	15.9	0.051302266792
1	28093	15.9	0.205229163103
1	28093	15.9	0.263734702796
1	28093	15.9	0.336939236389
1	28093	15.9	0.340353381475
1	28093	15.9	0.400274800957
1	28093	15.9	0.404506907018
1	28093	15.9	0.502696191088
1	28093	15.9	0.511415715887
1	28093	15.9	0.535704627099
1	28093	15.9	0.541856630778
1	28093	15.9	0.556606885192
1	28093	15.9	0.698854870382
1	28093	15.9	0.778142573852
1	28093	15.9	0.890037729673
1	28093	15.9	0.913296425426
1	28093	15.9	0.919833626643
1	28093	15.9	0.964752148588
1	28093	15.9	0.970501407412
1	28093	15.9	0.976265838498
1	28093	15.9	0.987810691413
1	28093	15.9	0.996202631419
1	28093	15.9	1.004068185524
1	28093	15.9	1.061991584248
1	28093	15.9	1.11654471722
1	28093	15.9	1.116639368856
1	31293	17.7	0.789540915313
1	31293	17.7	0.816093331374
1	31293	17.7	0.816303397942
1	31293	17.7	0.828516533733
1	31293	17.7	0.846435451885
1	31293	17.7	0.902128207822
1	31293	17.7	0.909691919825
1	31293	17.7	0.925531508929
1	31293	17.7	0.971742902518
1	31293	17.7	0.99470919873
1	31293	17.7	1.051449405125
1	31293	17.7	1.104373148222
1	31293	17.7	1.122167067704
1	31293	17.7	1.127003774296
1	31293	17.7	1.132324922139
1	31293	17.7	1.160157048171