version 3
run uniformCQI-0-20231215-10:47:38-10364
attr configname uniformCQI
attr datetime 20231215-10:47:38
attr datetimef 20231215-104738
attr experiment uniformCQI
attr inifile omnetpp.ini
attr iterationvars "$simulationTime=70s, $nUser=25, $lambda=25"
attr iterationvarsd simulationTime=70s/nUser=25/lambda=25
attr iterationvarsf simulationTime=70s,nUser=25,lambda=25-
attr measurement "$simulationTime=70s, $nUser=25, $lambda=25"
attr network Network
attr processid 10364
attr repetition 0
attr replication #0
attr resultdir results
attr runnumber 0
attr seedset 0
itervar lambda 25
itervar nUser 25
itervar simulationTime 70s
config **.Users[*].CQIdistribution "\"uniform\""
config network Network
config cpu-time-limit 60s
config sim-time-limit 70s
config num-rngs 600
config repeat 10
config seed-set 0
config **.NUM_USER 25
config **.LAMBDA 25
config **.CQIArrayLength 15
config **.CQIValues "\" 3 3 6 11 15 20 25 36 39 50 63 72 80 93 93 \""
config **.frameSize 25
config **.timeSlot 0.1

vector 0 Network.BS simFrameStat:vector ETV
attr "" ""
attr recordingmode vector
attr source simFrame
attr title "Occupied frame slots"
vector 1 Network.Users[0] packetDelayStat:vector ETV
attr "" ""
attr recordingmode vector
attr source packetDelay
attr title "Packet delay"
vector 2 Network.Users[0] packetsReceivedStat:vector ETV
attr "" ""
attr recordingmode vector
attr source packetsReceived
attr title "Packets received per timeslot"
vector 3 Network.Users[0] throughputStat:vector ETV
attr "" ""
attr recordingmode vector
attr source throughput
attr title Throughput
vector 4 Network.Users[1] packetDelayStat:vector ETV
attr "" ""
attr recordingmode vector
attr source packetDelay
attr title "Packet delay"
vector 5 Network.Users[1] packetsReceivedStat:vector ETV
attr "" ""
attr recordingmode vector
attr source packetsReceived
attr title "Packets received per timeslot"
vector 6 Network.Users[1] throughputStat:vector ETV
attr "" ""
attr recordingmode vector
attr source throughput
attr title Throughput
vector 7 Network.Users[2] packetDelayStat:vector ETV
attr "" ""
attr recordingmode vector
attr source packetDelay
attr title "Packet delay"
vector 8 Network.Users[2] packetsReceivedStat:vector ETV
attr "" ""
attr recordingmode vector
attr source packetsReceived
attr title "Packets received per timeslot"
vector 9 Network.Users[2] throughputStat:vector ETV
attr "" ""
attr recordingmode vector
attr source throughput
attr title Throughput
vector 10 Network.Users[3] packetDelayStat:vector ETV
attr "" ""
attr recordingmode vector
attr source packetDelay
attr title "Packet delay"
vector 11 Network.Users[3] packetsReceivedStat:vector ETV
attr "" ""
attr recordingmode vector
attr source packetsReceived
attr title "Packets received per timeslot"
vector 12 Network.Users[3] throughputStat:vector ETV
attr "" ""
attr recordingmode vector
attr source throughput
attr title Throughput
vector 13 Network.Users[4] packetDelayStat:vector ETV
attr "" ""
attr recordingmode vector
attr source packetDelay
attr title "Packet delay"
vector 14 Network.Users[4] packetsReceivedStat:vector ETV
attr "" ""
attr recordingmode vector
attr source packetsReceived
attr title "Packets received per timeslot"
vector 15 Network.Users[4] throughputStat:vector ETV
attr "" ""
attr recordingmode vector
attr source throughput
attr title Throughput
vector 16 Network.Users[5] packetDelayStat:vector ETV
attr "" ""
attr recordingmode vector
attr source packetDelay
attr title "Packet delay"
vector 17 Network.Users[5] packetsReceivedStat:vector ETV
attr "" ""
attr recordingmode vector
attr source packetsReceived
attr title "Packets received per timeslot"
vector 18 Network.Users[5] throughputStat:vector ETV
attr "" ""
attr recordingmode vector
attr source throughput
attr title Throughput
vector 19 Network.Users[6] packetDelayStat:vector ETV
attr "" ""
attr recordingmode vector
attr source packetDelay
attr title "Packet delay"
vector 20 Network.Users[6] packetsReceivedStat:vector ETV
attr "" ""
attr recordingmode vector
attr source packetsReceived
attr title "Packets received per timeslot"
vector 21 Network.Users[6] throughputStat:vector ETV
attr "" ""
attr recordingmode vector
attr source throughput
attr title Throughput
vector 22 Network.Users[7] packetDelayStat:vector ETV
attr "" ""
attr recordingmode vector
attr source packetDelay
attr title "Packet delay"
vector 23 Network.Users[7] packetsReceivedStat:vector ETV
attr "" ""
attr recordingmode vector
attr source packetsReceived
attr title "Packets received per timeslot"
vector 24 Network.Users[7] throughputStat:vector ETV
attr "" ""
attr recordingmode vector
attr source throughput
attr title Throughput
vector 25 Network.Users[8] packetDelayStat:vector ETV
attr "" ""
attr recordingmode vector
attr source packetDelay
attr title "Packet delay"
vector 26 Network.Users[8] packetsReceivedStat:vector ETV
attr "" ""
attr recordingmode vector
attr source packetsReceived
attr title "Packets received per timeslot"
vector 27 Network.Users[8] throughputStat:vector ETV
attr "" ""
attr recordingmode vector
attr source throughput
attr title Throughput
vector 28 Network.Users[9] packetDelayStat:vector ETV
attr "" ""
attr recordingmode vector
attr source packetDelay
attr title "Packet delay"
vector 29 Network.Users[9] packetsReceivedStat:vector ETV
attr "" ""
attr recordingmode vector
attr source packetsReceived
attr title "Packets received per timeslot"
vector 30 Network.Users[9] throughputStat:vector ETV
attr "" ""
attr recordingmode vector
attr source throughput
attr title Throughput
vector 31 Network.Users[10] packetDelayStat:vector ETV
attr "" ""
attr recordingmode vector
attr source packetDelay
attr title "Packet delay"
vector 32 Network.Users[10] packetsReceivedStat:vector ETV
attr "" ""
attr recordingmode vector
attr source packetsReceived
attr title "Packets received per timeslot"
vector 33 Network.Users[10] throughputStat:vector ETV
attr "" ""
attr recordingmode vector
attr source throughput
attr title Throughput
vector 34 Network.Users[11] packetDelayStat:vector ETV
attr "" ""
attr recordingmode vector
attr source packetDelay
attr title "Packet delay"
vector 35 Network.Users[11] packetsReceivedStat:vector ETV
attr "" ""
attr recordingmode vector
attr source packetsReceived
attr title "Packets received per timeslot"
vector 36 Network.Users[11] throughputStat:vector ETV
attr "" ""
attr recordingmode vector
attr source throughput
attr title Throughput
vector 37 Network.Users[12] packetsReceivedStat:vector ETV
attr "" ""
attr recordingmode vector
attr source packetsReceived
attr title "Packets received per timeslot"
vector 38 Network.Users[12] throughputStat:vector ETV
attr "" ""
attr recordingmode vector
attr source throughput
attr title Throughput
vector 39 Network.Users[13] packetsReceivedStat:vector ETV
attr "" ""
attr recordingmode vector
attr source packetsReceived
attr title "Packets received per timeslot"
vector 40 Network.Users[13] throughputStat:vector ETV
attr "" ""
attr recordingmode vector
attr source throughput
attr title Throughput
vector 41 Network.Users[14] packetsReceivedStat:vector ETV
attr "" ""
attr recordingmode vector
attr source packetsReceived
attr title "Packets received per timeslot"
vector 42 Network.Users[14] throughputStat:vector ETV
attr "" ""
attr recordingmode vector
attr source throughput
attr title Throughput
vector 43 Network.Users[15] packetsReceivedStat:vector ETV
attr "" ""
attr recordingmode vector
attr source packetsReceived
attr title "Packets received per timeslot"
vector 44 Network.Users[15] throughputStat:vector ETV
attr "" ""
attr recordingmode vector
attr source throughput
attr title Throughput
vector 45 Network.Users[16] packetsReceivedStat:vector ETV
attr "" ""
attr recordingmode vector
attr source packetsReceived
attr title "Packets received per timeslot"
vector 46 Network.Users[16] throughputStat:vector ETV
attr "" ""
attr recordingmode vector
attr source throughput
attr title Throughput
vector 47 Network.Users[17] packetsReceivedStat:vector ETV
attr "" ""
attr recordingmode vector
attr source packetsReceived
attr title "Packets received per timeslot"
vector 48 Network.Users[17] throughputStat:vector ETV
attr "" ""
attr recordingmode vector
attr source throughput
attr title Throughput
vector 49 Network.Users[18] packetsReceivedStat:vector ETV
attr "" ""
attr recordingmode vector
attr source packetsReceived
attr title "Packets received per timeslot"
vector 50 Network.Users[18] throughputStat:vector ETV
attr "" ""
attr recordingmode vector
attr source throughput
attr title Throughput
vector 51 Network.Users[19] packetsReceivedStat:vector ETV
attr "" ""
attr recordingmode vector
attr source packetsReceived
attr title "Packets received per timeslot"
vector 52 Network.Users[19] throughputStat:vector ETV
attr "" ""
attr recordingmode vector
attr source throughput
attr title Throughput
vector 53 Network.Users[20] packetsReceivedStat:vector ETV
attr "" ""
attr recordingmode vector
attr source packetsReceived
attr title "Packets received per timeslot"
vector 54 Network.Users[20] throughputStat:vector ETV
attr "" ""
attr recordingmode vector
attr source throughput
attr title Throughput
vector 55 Network.Users[21] packetsReceivedStat:vector ETV
attr "" ""
attr recordingmode vector
attr source packetsReceived
attr title "Packets received per timeslot"
vector 56 Network.Users[21] throughputStat:vector ETV
attr "" ""
attr recordingmode vector
attr source throughput
attr title Throughput
vector 57 Network.Users[22] packetsReceivedStat:vector ETV
attr "" ""
attr recordingmode vector
attr source packetsReceived
attr title "Packets received per timeslot"
vector 58 Network.Users[22] throughputStat:vector ETV
attr "" ""
attr recordingmode vector
attr source throughput
attr title Throughput
vector 59 Network.Users[23] packetsReceivedStat:vector ETV
attr "" ""
attr recordingmode vector
attr source packetsReceived
attr title "Packets received per timeslot"
vector 60 Network.Users[23] throughputStat:vector ETV
attr "" ""
attr recordingmode vector
attr source throughput
attr title Throughput
vector 61 Network.Users[24] packetsReceivedStat:vector ETV
attr "" ""
attr recordingmode vector
attr source packetsReceived
attr title "Packets received per timeslot"
vector 62 Network.Users[24] throughputStat:vector ETV
attr "" ""
attr recordingmode vector
attr source throughput
attr title Throughput
vector 63 Network.Users[12] packetDelayStat:vector ETV
attr "" ""
attr recordingmode vector
attr source packetDelay
attr title "Packet delay"
vector 64 Network.Users[13] packetDelayStat:vector ETV
attr "" ""
attr recordingmode vector
attr source packetDelay
attr title "Packet delay"
vector 65 Network.Users[14] packetDelayStat:vector ETV
attr "" ""
attr recordingmode vector
attr source packetDelay
attr title "Packet delay"
vector 66 Network.Users[15] packetDelayStat:vector ETV
attr "" ""
attr recordingmode vector
attr source packetDelay
attr title "Packet delay"
vector 67 Network.Users[16] packetDelayStat:vector ETV
attr "" ""
attr recordingmode vector
attr source packetDelay
attr title "Packet delay"
vector 68 Network.Users[17] packetDelayStat:vector ETV
attr "" ""
attr recordingmode vector
attr source packetDelay
attr title "Packet delay"
vector 69 Network.Users[18] packetDelayStat:vector ETV
attr "" ""
attr recordingmode vector
attr source packetDelay
attr title "Packet delay"
vector 70 Network.Users[19] packetDelayStat:vector ETV
attr "" ""
attr recordingmode vector
attr source packetDelay
attr title "Packet delay"
vector 71 Network.Users[20] packetDelayStat:vector ETV
attr "" ""
attr recordingmode vector
attr source packetDelay
attr title "Packet delay"
vector 72 Network.Users[21] packetDelayStat:vector ETV
attr "" ""
attr recordingmode vector
attr source packetDelay
attr title "Packet delay"
vector 73 Network.Users[22] packetDelayStat:vector ETV
attr "" ""
attr recordingmode vector
attr source packetDelay
attr title "Packet delay"
vector 74 Network.Users[23] packetDelayStat:vector ETV
attr "" ""
attr recordingmode vector
attr source packetDelay
attr title "Packet delay"
vector 75 Network.Users[24] packetDelayStat:vector ETV
attr "" ""
attr recordingmode vector
attr source packetDelay
attr title "Packet delay"
0	152	0.1	16
0	345	0.2	25
0	528	0.3	25
0	693	0.4	25
0	882	0.5	25
0	1043	0.6	25
0	1208	0.7	25
0	1359	0.8	25
0	1544	0.9	25
0	1723	1	25
0	1896	1.1	25
0	2071	1.2	25
0	2240	1.3	25
0	2401	1.4	25
0	2600	1.5	25
0	2773	1.6	25
0	2966	1.7	25
0	3131	1.8	25
0	3302	1.9	25
0	3493	2	25
0	3666	2.1	25
0	3833	2.2	25
0	4040	2.3	25
0	4215	2.4	25
0	4374	2.5	25
0	4517	2.6	25
0	4678	2.7	25
0	4827	2.8	25
0	5020	2.9	25
0	5205	3	25
0	5378	3.1	25
0	5551	3.2	25
0	5734	3.3	25
0	5875	3.4	25
0	6056	3.5	25
0	6255	3.6	25
0	6446	3.7	25
0	6619	3.8	25
0	6788	3.9	25
0	6951	4	25
0	7122	4.1	25
0	7297	4.2	25
0	7470	4.3	25
0	7621	4.4	25
0	7812	4.5	25
0	8001	4.6	25
0	8190	4.7	25
0	8355	4.8	25
0	8550	4.9	25
0	8741	5	25
0	8924	5.1	25
0	9107	5.2	25
0	9264	5.3	25
0	9461	5.4	25
0	9618	5.5	25
0	9785	5.6	25
0	9960	5.7	25
0	10111	5.8	25
0	10258	5.9	25
0	10427	6	25
0	10604	6.1	25
0	10767	6.2	25
0	10926	6.3	25
0	11081	6.4	25
0	11260	6.5	25
0	11429	6.6	25
0	11642	6.7	25
0	11801	6.8	25
0	12000	6.9	25
0	12181	7	25
0	12380	7.1	25
0	12547	7.2	25
0	12748	7.3	25
0	12921	7.4	25
0	13112	7.5	25
0	13317	7.6	25
0	13506	7.7	25
0	13667	7.8	25
0	13858	7.9	25
0	14037	8	25
0	14218	8.1	25
0	14421	8.2	25
0	14596	8.3	25
0	14777	8.4	25
0	14968	8.5	25
0	15159	8.6	25
0	15340	8.7	25
0	15519	8.8	25
0	15666	8.9	25
0	15841	9	25
0	15994	9.1	25
0	16179	9.2	0
0	16340	9.3	25
0	16515	9.4	25
0	16658	9.5	25
0	16843	9.6	25
0	16992	9.7	25
0	17187	9.8	25
0	17374	9.9	25
0	17549	10	25
0	17728	10.1	25
0	17927	10.2	25
0	18102	10.3	25
0	18291	10.4	25
0	18440	10.5	25
0	18601	10.6	25
0	18780	10.7	25
0	18943	10.8	25
0	19138	10.9	25
0	19327	11	25
0	19498	11.1	25
0	19691	11.2	25
0	19864	11.3	25
0	20065	11.4	25
0	20244	11.5	25
0	20419	11.6	25
0	20604	11.7	25
0	20763	11.8	25
0	20948	11.9	25
0	21117	12	25
0	21288	12.1	25
0	21465	12.2	25
0	21674	12.3	25
0	21863	12.4	25
0	22026	12.5	25
0	22179	12.6	25
0	22376	12.7	25
0	22545	12.8	25
0	22720	12.9	25
0	22909	13	25
0	23050	13.1	25
0	23235	13.2	25
0	23412	13.3	25
0	23573	13.4	25
0	23724	13.5	25
0	23935	13.6	25
0	24118	13.7	25
0	24339	13.8	25
0	24502	13.9	25
0	24691	14	25
0	24832	14.1	25
0	25017	14.2	25
0	25190	14.3	25
0	25381	14.4	25
0	25524	14.5	25
0	25683	14.6	25
0	25862	14.7	25
0	26027	14.8	25
0	26174	14.9	25
0	26349	15	25
0	26512	15.1	25
0	26699	15.2	25
0	26868	15.3	25
0	27051	15.4	25
0	27236	15.5	25
0	27393	15.6	25
0	27556	15.7	25
0	27745	15.8	25
0	27916	15.9	25
0	28091	16	25
0	28282	16.1	25
0	28449	16.2	25
0	28602	16.3	25
0	28779	16.4	25
0	28968	16.5	25
0	29159	16.6	25
0	29322	16.7	25
0	29503	16.8	25
0	29682	16.9	25
0	29859	17	25
0	30044	17.1	25
0	30225	17.2	25
0	30400	17.3	25
0	30557	17.4	25
0	30718	17.5	25
0	30879	17.6	25
0	31048	17.7	25
0	31197	17.8	25
0	31366	17.9	25
0	31515	18	25
0	31688	18.1	25
0	31861	18.2	25
0	32020	18.3	25
0	32183	18.4	25
0	32364	18.5	25
0	32539	18.6	25
0	32728	18.7	25
0	32873	18.8	25
0	33048	18.9	25
0	33243	19	25
0	33416	19.1	25
0	33563	19.2	25
0	33752	19.3	25
0	33933	19.4	25
0	34126	19.5	25
0	34295	19.6	25
0	34476	19.7	25
0	34651	19.8	25
0	34842	19.9	25
0	35013	20	25
0	35176	20.1	25
0	35335	20.2	25
0	35482	20.3	25
0	35667	20.4	25
0	35818	20.5	25
0	35991	20.6	25
0	36164	20.7	25
0	36347	20.8	25
0	36516	20.9	25
0	36711	21	25
0	36890	21.1	25
0	37081	21.2	25
0	37284	21.3	25
0	37451	21.4	25
0	37634	21.5	25
0	37795	21.6	25
0	37974	21.7	25
0	38159	21.8	25
0	38308	21.9	25
0	38497	22	25
0	38674	22.1	25
0	38869	22.2	0
0	39044	22.3	25
0	39241	22.4	25
0	39410	22.5	25
0	39595	22.6	25
0	39748	22.7	25
0	39923	22.8	25
0	40122	22.9	25
0	40303	23	25
0	40502	23.1	25
0	40719	23.2	25
0	40892	23.3	25
0	41071	23.4	25
0	41242	23.5	25
0	41425	23.6	25
0	41600	23.7	25
0	41781	23.8	25
0	41962	23.9	25
0	42153	24	25
0	42326	24.1	25
0	42497	24.2	25
0	42692	24.3	25
0	42867	24.4	25
0	43050	24.5	25
0	43233	24.6	25
0	43400	24.7	25
0	43579	24.8	25
0	43732	24.9	25
0	43909	25	25
0	44106	25.1	25
0	44277	25.2	25
0	44438	25.3	25
0	44625	25.4	25
0	44842	25.5	25
0	45053	25.6	25
0	45204	25.7	25
0	45363	25.8	25
0	45550	25.9	25
0	45731	26	25
0	45890	26.1	25
0	46085	26.2	25
0	46258	26.3	25
0	46423	26.4	25
0	46598	26.5	25
0	46781	26.6	25
0	46946	26.7	25
0	47119	26.8	25
0	47272	26.9	25
0	47437	27	25
0	47638	27.1	25
0	47843	27.2	25
0	48026	27.3	25
0	48207	27.4	25
0	48366	27.5	25
0	48529	27.6	25
0	48700	27.7	25
0	48865	27.8	25
0	49040	27.9	25
0	49209	28	25
0	49382	28.1	25
0	49549	28.2	25
0	49734	28.3	25
0	49899	28.4	25
0	50098	28.5	25
0	50299	28.6	25
0	50488	28.7	25
0	50683	28.8	25
0	50866	28.9	25
0	51051	29	25
0	51206	29.1	25
0	51413	29.2	25
0	51586	29.3	25
0	51731	29.4	25
0	51922	29.5	25
0	52103	29.6	25
0	52284	29.7	25
0	52461	29.8	25
0	52618	29.9	25
0	52777	30	25
0	52974	30.1	25
0	53131	30.2	25
0	53316	30.3	25
0	53529	30.4	25
0	53736	30.5	25
0	53871	30.6	25
0	54048	30.7	25
0	54241	30.8	25
0	54414	30.9	25
0	54585	31	25
0	54746	31.1	25
0	54923	31.2	25
0	55112	31.3	25
0	55271	31.4	25
0	55420	31.5	25
0	55591	31.6	25
0	55740	31.7	25
0	55909	31.8	25
0	56088	31.9	25
0	56291	32	25
0	56484	32.1	25
0	56681	32.2	25
0	56870	32.3	25
0	57039	32.4	25
0	57186	32.5	25
0	57365	32.6	25
0	57506	32.7	25
0	57677	32.8	25
0	57846	32.9	25
0	58007	33	25
0	58178	33.1	25
0	58351	33.2	25
0	58548	33.3	25
0	58719	33.4	25
0	58880	33.5	25
0	59055	33.6	25
0	59212	33.7	25
0	59381	33.8	25
0	59538	33.9	25
0	59725	34	25
0	59926	34.1	25
0	60095	34.2	25
0	60266	34.3	25
0	60449	34.4	25
0	60630	34.5	25
0	60801	34.6	25
0	60960	34.7	25
0	61111	34.8	25
0	61300	34.9	25
0	61497	35	25
0	61642	35.1	25
0	61817	35.2	25
0	61970	35.3	25
0	62141	35.4	25
0	62322	35.5	25
0	62491	35.6	25
0	62690	35.7	25
0	62907	35.8	25
0	63064	35.9	25
0	63241	36	25
0	63430	36.1	25
0	63615	36.2	25
0	63772	36.3	25
0	63951	36.4	25
0	64140	36.5	25
0	64317	36.6	25
0	64488	36.7	25
0	64681	36.8	25
0	64858	36.9	25
0	65035	37	25
0	65232	37.1	25
0	65411	37.2	25
0	65586	37.3	25
0	65781	37.4	25
0	65944	37.5	25
0	66127	37.6	25
0	66306	37.7	25
0	66493	37.8	25
0	66660	37.9	25
0	66827	38	25
0	66994	38.1	25
0	67177	38.2	25
0	67368	38.3	25
0	67551	38.4	25
0	67740	38.5	25
0	67889	38.6	25
0	68070	38.7	25
0	68243	38.8	25
0	68432	38.9	25
0	68595	39	25
0	68764	39.1	25
0	68951	39.2	25
0	69114	39.3	25
0	69295	39.4	25
0	69480	39.5	25
0	69647	39.6	25
0	69822	39.7	25
0	70005	39.8	25
0	70180	39.9	25
0	70371	40	25
0	70548	40.1	25
0	70691	40.2	25
0	70874	40.3	25
0	71045	40.4	25
0	71208	40.5	25
0	71379	40.6	25
0	71568	40.7	25
0	71761	40.8	25
0	71930	40.9	25
0	72125	41	25
0	72290	41.1	25
0	72497	41.2	25
0	72666	41.3	25
0	72817	41.4	25
0	72976	41.5	25
0	73145	41.6	25
0	73298	41.7	25
0	73505	41.8	25
0	73648	41.9	25
0	73833	42	25
0	73996	42.1	25
0	74163	42.2	25
0	74310	42.3	25
0	74499	42.4	25
0	74662	42.5	25
0	74859	42.6	25
0	75036	42.7	25
0	75225	42.8	25
0	75396	42.9	25
0	75595	43	25
0	75784	43.1	25
0	75941	43.2	25
0	76134	43.3	25
0	76315	43.4	0
0	76504	43.5	25
0	76677	43.6	25
0	76844	43.7	25
0	77013	43.8	25
0	77190	43.9	25
0	77367	44	25
0	77528	44.1	25
0	77709	44.2	25
0	77876	44.3	25
0	78041	44.4	25
0	78220	44.5	25
0	78367	44.6	25
0	78538	44.7	25
0	78733	44.8	25
0	78922	44.9	25
0	79101	45	25
0	79242	45.1	25
0	79401	45.2	25
0	79576	45.3	25
0	79741	45.4	25
0	79906	45.5	25
0	80081	45.6	25
0	80250	45.7	25
0	80451	45.8	25
0	80642	45.9	25
0	80827	46	25
0	81032	46.1	25
0	81197	46.2	25
0	81360	46.3	25
0	81539	46.4	25
0	81738	46.5	25
0	81927	46.6	25
0	82090	46.7	25
0	82241	46.8	25
0	82426	46.9	25
0	82613	47	25
0	82796	47.1	25
0	82951	47.2	25
0	83110	47.3	25
0	83277	47.4	25
0	83462	47.5	25
0	83625	47.6	25
0	83792	47.7	25
0	83971	47.8	25
0	84142	47.9	25
0	84319	48	25
0	84514	48.1	25
0	84679	48.2	25
0	84844	48.3	25
0	85019	48.4	25
0	85192	48.5	25
0	85373	48.6	25
0	85556	48.7	25
0	85745	48.8	25
0	85928	48.9	25
0	86115	49	25
0	86304	49.1	25
0	86501	49.2	25
0	86680	49.3	25
0	86851	49.4	25
0	87038	49.5	25
0	87209	49.6	25
0	87354	49.7	25
0	87531	49.8	25
0	87734	49.9	25
0	87917	50	25
0	88088	50.1	25
0	88237	50.2	25
0	88432	50.3	25
0	88593	50.4	25
0	88758	50.5	25
0	88951	50.6	25
0	89150	50.7	25
0	89329	50.8	25
0	89472	50.9	25
0	89617	51	25
0	89804	51.1	25
0	89939	51.2	25
0	90116	51.3	25
0	90291	51.4	25
0	90464	51.5	25
0	90641	51.6	25
0	90810	51.7	25
0	90979	51.8	25
0	91160	51.9	25
0	91335	52	25
0	91522	52.1	25
0	91689	52.2	25
0	91880	52.3	25
0	92073	52.4	25
0	92264	52.5	25
0	92433	52.6	25
0	92586	52.7	25
0	92739	52.8	25
0	92870	52.9	25
0	93083	53	25
0	93262	53.1	25
0	93433	53.2	25
0	93600	53.3	25
0	93751	53.4	25
0	93904	53.5	25
0	94043	53.6	25
0	94216	53.7	25
0	94359	53.8	25
0	94522	53.9	25
0	94687	54	25
0	94856	54.1	25
0	95041	54.2	25
0	95200	54.3	25
0	95375	54.4	25
0	95532	54.5	25
0	95709	54.6	25
0	95886	54.7	25
0	96033	54.8	25
0	96190	54.9	25
0	96331	55	25
0	96512	55.1	25
0	96667	55.2	25
0	96854	55.3	25
0	97031	55.4	25
0	97218	55.5	25
0	97389	55.6	25
0	97570	55.7	25
0	97735	55.8	25
0	97960	55.9	25
0	98125	56	25
0	98284	56.1	25
0	98467	56.2	25
0	98624	56.3	25
0	98813	56.4	25
0	98984	56.5	25
0	99165	56.6	25
0	99358	56.7	25
0	99541	56.8	25
0	99706	56.9	25
0	99873	57	25
0	100038	57.1	25
0	100215	57.2	25
0	100380	57.3	25
0	100577	57.4	25
0	100754	57.5	25
0	100913	57.6	25
0	101072	57.7	25
0	101245	57.8	25
0	101390	57.9	25
0	101583	58	25
0	101784	58.1	25
0	101949	58.2	25
0	102142	58.3	25
0	102349	58.4	25
0	102504	58.5	25
0	102701	58.6	25
0	102862	58.7	25
0	103029	58.8	25
0	103230	58.9	25
0	103411	59	25
0	103610	59.1	25
0	103787	59.2	25
0	103974	59.3	25
0	104143	59.4	25
0	104320	59.5	25
0	104481	59.6	25
0	104662	59.7	25
0	104829	59.8	25
0	105006	59.9	25
0	105183	60	25
0	105364	60.1	25
0	105553	60.2	25
0	105752	60.3	25
0	105951	60.4	25
0	106112	60.5	25
0	106281	60.6	25
0	106464	60.7	25
0	106633	60.8	0
0	106816	60.9	25
0	106983	61	25
0	107172	61.1	25
0	107357	61.2	25
0	107526	61.3	25
0	107683	61.4	25
0	107830	61.5	25
0	107975	61.6	25
0	108158	61.7	25
0	108329	61.8	25
0	108488	61.9	25
0	108683	62	25
0	108868	62.1	25
0	109065	62.2	25
0	109232	62.3	25
0	109393	62.4	25
0	109544	62.5	25
0	109721	62.6	25
0	109888	62.7	25
0	110069	62.8	25
0	110240	62.9	25
0	110403	63	25
0	110584	63.1	25
0	110747	63.2	25
0	110924	63.3	25
0	111095	63.4	25
0	111300	63.5	25
0	111491	63.6	25
0	111660	63.7	25
0	111821	63.8	25
0	112004	63.9	25
0	112177	64	25
0	112344	64.1	25
0	112525	64.2	25
0	112706	64.3	25
0	112927	64.4	25
0	113086	64.5	25
0	113247	64.6	25
0	113414	64.7	25
0	113589	64.8	25
0	113756	64.9	25
0	113935	65	25
0	114120	65.1	25
0	114291	65.2	25
0	114464	65.3	25
0	114627	65.4	25
0	114806	65.5	25
0	114979	65.6	25
0	115170	65.7	25
0	115351	65.8	25
0	115516	65.9	25
0	115669	66	25
0	115864	66.1	25
0	116045	66.2	25
0	116230	66.3	25
0	116399	66.4	25
0	116584	66.5	25
0	116757	66.6	25
0	116928	66.7	25
0	117103	66.8	25
0	117286	66.9	25
0	117483	67	25
0	117666	67.1	25
0	117853	67.2	25
0	118010	67.3	25
0	118217	67.4	25
0	118380	67.5	25
0	118573	67.6	25
0	118730	67.7	25
0	118923	67.8	25
0	119114	67.9	25
0	119285	68	25
0	119460	68.1	25
0	119649	68.2	25
0	119822	68.3	25
0	120005	68.4	25
0	120188	68.5	25
0	120365	68.6	25
0	120536	68.7	25
0	120735	68.8	25
0	120904	68.9	25
0	121067	69	25
0	121274	69.1	25
0	121435	69.2	25
0	121604	69.3	25
0	121761	69.4	25
0	121930	69.5	25
0	122101	69.6	25
0	122268	69.7	25
0	122437	69.8	25
0	122608	69.9	25
0	122827	70	25
1	153	0.1	0.018352954036
1	694	0.4	0.019207707784
1	694	0.4	0.026911832854
1	694	0.4	0.049934297327
1	694	0.4	0.08873347675
1	694	0.4	0.134936813825
1	694	0.4	0.146936633073
1	694	0.4	0.151930852373
1	694	0.4	0.158460705222
1	694	0.4	0.179640669586
1	694	0.4	0.187618949486
1	694	0.4	0.195846384472
1	694	0.4	0.20000858278
1	694	0.4	0.213084294451
1	694	0.4	0.235797705576
1	694	0.4	0.270715168839
1	2072	1.2	0.045847642075
1	2072	1.2	0.118254644783
1	2072	1.2	0.213316168132
1	2072	1.2	0.231569321303
1	2072	1.2	0.246167415502
1	2072	1.2	0.294217973152
1	2072	1.2	0.312198437185
1	2072	1.2	0.327982478262
1	2072	1.2	0.371057849957
1	2072	1.2	0.40047656105
1	2072	1.2	0.43792728752
1	2072	1.2	0.444996063428
1	2072	1.2	0.465885448444
1	2072	1.2	0.501107444614
1	2072	1.2	0.531473770841
1	2072	1.2	0.55517189296
1	2072	1.2	0.555928194333
1	2072	1.2	0.560726441919
1	2072	1.2	0.677854203166
1	2072	1.2	0.698445254754
1	2072	1.2	0.755739613837
1	2072	1.2	0.774036083763
1	2072	1.2	0.786709813391
1	2241	1.3	0.068125293037
1	2241	1.3	0.097193641325
1	2241	1.3	0.107726996638
1	2241	1.3	0.133987492314
1	3132	1.8	0.023115323589
1	3132	1.8	0.098913941608
1	3132	1.8	0.127795935361
1	3132	1.8	0.16775821288
1	3132	1.8	0.408076467031
1	3132	1.8	0.434045164116
1	3132	1.8	0.453363734577
1	4679	2.7	0.005503935101
1	4679	2.7	0.043862580967
1	4679	2.7	0.098566797393
1	4679	2.7	0.189400910886
1	4679	2.7	0.222171288563
1	4679	2.7	0.260408949626
1	4679	2.7	0.290255593613
1	4679	2.7	0.341153969968
1	4679	2.7	0.354842560739
1	4679	2.7	0.382758359994
1	4679	2.7	0.40711565678
1	4679	2.7	0.444621625345
1	4679	2.7	0.488921161025
1	4679	2.7	0.499410881247
1	4679	2.7	0.591624170766
1	4679	2.7	0.598098789285
1	4679	2.7	0.611333550255
1	4679	2.7	0.675735271753
1	4679	2.7	0.698709688678
1	4679	2.7	0.739551736223
1	4679	2.7	0.761410093165
1	4679	2.7	0.785909941249
1	4679	2.7	0.836818573807
1	4679	2.7	0.874040177636
1	4679	2.7	0.875442463554
1	4679	2.7	0.890362074847
1	6620	3.8	0.596142229526
1	6620	3.8	0.62585705297
1	6620	3.8	0.654464814964
1	6620	3.8	0.669264346717
1	6620	3.8	0.795315924953
1	6620	3.8	0.836725885879
1	6620	3.8	0.862225182302
1	6620	3.8	0.865436305658
1	6620	3.8	0.959000185991
1	6620	3.8	1.02842165355
1	6620	3.8	1.035012897271
1	6789	3.9	0.05965818234
1	6789	3.9	0.065340109991
1	6789	3.9	0.109228104355
1	6789	3.9	0.150285358225
1	6789	3.9	0.290138386421
1	6789	3.9	0.29385381762
1	6789	3.9	0.296035480214
1	6789	3.9	0.324763906113
1	6789	3.9	0.327785530556
1	6789	3.9	0.341792341671
1	6789	3.9	0.385679194233
1	6789	3.9	0.471571208794
1	6789	3.9	0.528330793805
1	6789	3.9	0.655222255273
1	8356	4.8	0.788497743596
1	8356	4.8	0.822925799593
1	8356	4.8	0.881106297034
1	8551	4.9	0.634829909596
1	8551	4.9	0.677415291475
1	8551	4.9	0.713382850845
1	8551	4.9	0.741852659173
1	8551	4.9	0.76288481492
1	8551	4.9	0.808443639351
1	8551	4.9	0.864040612559
1	8551	4.9	0.880122081437
1	8551	4.9	0.885303870698
1	8742	5	0.017270340228
1	8742	5	0.115256161181
1	8742	5	0.158653596975
1	8742	5	0.177389105818
1	8742	5	0.251752991484
1	8742	5	0.275004423403
1	8742	5	0.284479331235
1	8742	5	0.358324813911
1	8742	5	0.360289462953
1	8742	5	0.364412306574
1	8742	5	0.388948815023
1	8742	5	0.4388173132
1	8742	5	0.439353614318
1	8742	5	0.509104162549
1	8742	5	0.539174443749
1	8742	5	0.559377572599
1	8742	5	0.579793498763
1	8742	5	0.601254229397
1	8742	5	0.602153349963
1	8742	5	0.652937142074
1	8742	5	0.673916246623
1	8742	5	0.710780476083
1	10605	6.1	0.043242209104
1	10605	6.1	0.044106531377
1	10605	6.1	0.057213858472
1	10605	6.1	0.102363692841
1	10605	6.1	0.104699657544
1	10605	6.1	0.161652472202
1	10605	6.1	0.176783135767
1	10605	6.1	0.274042625423
1	10605	6.1	0.286044495309
1	10605	6.1	0.295730637931
1	10605	6.1	0.30482799787
1	10605	6.1	0.330404517535
1	10605	6.1	0.34528928674
1	10605	6.1	0.361630028456
1	10605	6.1	0.373963416119
1	10605	6.1	0.432231115454
1	10605	6.1	0.441941062804
1	10605	6.1	0.449348077916
1	10605	6.1	0.467681826237
1	10605	6.1	0.527384157113
1	10605	6.1	0.57061709617
1	10605	6.1	0.643159674801
1	10605	6.1	0.655939861965
1	10605	6.1	0.663088258855
1	10605	6.1	0.714869436268
1	10605	6.1	0.750619830818
1	10605	6.1	0.756539952313
1	10605	6.1	0.765779789304
1	10605	6.1	0.951931144005
1	10605	6.1	0.953045480256
1	10605	6.1	0.953840902821
1	10605	6.1	0.965451640303
1	10605	6.1	1.043459559264
1	10605	6.1	1.075202843508
1	11643	6.7	0.063234617017
1	11643	6.7	0.114878437777
1	11643	6.7	0.116248963038
1	11643	6.7	0.143437982326
1	11643	6.7	0.205979608139
1	11643	6.7	0.244358437524
1	11643	6.7	0.252035187988
1	11643	6.7	0.268139465085
1	11643	6.7	0.301604429539
1	11643	6.7	0.316164143287
1	11643	6.7	0.320949239532
1	11643	6.7	0.371203703829
1	11643	6.7	0.442356462807
1	11643	6.7	0.454043043725
1	11643	6.7	0.458011095397
1	11643	6.7	0.499915218827
1	11643	6.7	0.543170599183
1	13113	7.5	0.042124170923
1	13113	7.5	0.06817453162
1	13113	7.5	0.085640651937
1	13113	7.5	0.174965098267
1	13113	7.5	0.196106255613
1	13113	7.5	0.207314897015
1	13113	7.5	0.224244307254
1	13113	7.5	0.227825825973
1	13113	7.5	0.243447049867
1	13113	7.5	0.308963148598
1	13113	7.5	0.411919638628
1	13113	7.5	0.437269034442
1	13113	7.5	0.453954431607
1	13113	7.5	0.457479808938
1	13113	7.5	0.46291138642
1	13113	7.5	0.573847117177
1	13113	7.5	0.633522282991
1	13113	7.5	0.637231190132
1	13113	7.5	0.665534932907
1	13113	7.5	0.692613735356
1	13113	7.5	0.71091859241
1	13113	7.5	0.757693367612
1	13113	7.5	0.799654856132